
     Program PWSCF v.7.2 starts on 29May2023 at 16:41:16 

     This program is part of the open-source Quantum ESPRESSO suite
     for quantum simulation of materials; please cite
         "P. Giannozzi et al., J. Phys.:Condens. Matter 21 395502 (2009);
         "P. Giannozzi et al., J. Phys.:Condens. Matter 29 465901 (2017);
         "P. Giannozzi et al., J. Chem. Phys. 152 154105 (2020);
          URL http://www.quantum-espresso.org", 
     in publications or presentations arising from this work. More details at
     http://www.quantum-espresso.org/quote

     Parallel version (MPI), running on    28 processors

     MPI processes distributed on     1 nodes
     55852 MiB available memory on the printing compute node when the environment starts
 
     Waiting for input...
     Reading input from standard input
Warning: card &CELL ignored
Warning: card / ignored

     Current dimensions of program PWSCF are:
     Max number of different atomic species (ntypx) = 10
     Max number of k-points (npk) =  40000
     Max angular momentum in pseudopotentials (lmaxx) =  4
     file Zr.pbesol-spn-kjpaw_psl.1.0.0.UPF: wavefunction(s)  4S 4P renormalized
     file Ti.pbesol-spn-kjpaw_psl.1.0.0.UPF: wavefunction(s)  3S 3P 3D renormalized
     file O.pbesol-n-kjpaw_psl.1.0.0.UPF: wavefunction(s)  2S 2P renormalized
     Message from routine setup:
     using ibrav=0 with symmetry is DISCOURAGED, use correct ibrav instead
 
     K-points division:     npool     =       2
     R & G space division:  proc/nbgrp/npool/nimage =      14
     Subspace diagonalization in iterative solution of the eigenvalue problem:
     a serial algorithm will be used

 
     Parallelization info
     --------------------
     sticks:   dense  smooth     PW     G-vecs:    dense   smooth      PW
     Min         236     236     70                 4547     4547     734
     Max         237     237     71                 4548     4548     735
     Sum        3315    3315    981                63661    63661   10281
 
     Using Slab Decomposition
 


     bravais-lattice index     =            0
     lattice parameter (alat)  =      17.8428  a.u.
     unit-cell volume          =    1835.5457 (a.u.)^3
     number of atoms/cell      =           24
     number of atomic types    =            3
     number of electrons       =       192.00
     number of Kohn-Sham states=          115
     kinetic-energy cutoff     =      40.4242  Ry
     charge density cutoff     =     161.6969  Ry
     scf convergence threshold =      1.0E-06
     mixing beta               =       0.7000
     number of iterations used =            8  plain     mixing
     energy convergence thresh.=      1.0E-04
     force convergence thresh. =      1.0E-03
     Exchange-correlation= SLA  PW   PSX  PSC
                           (   1   4  10   8   0   0   0)
     nstep                     =           50

     Hubbard projectors: ortho-atomic
     Hubbard parameters of DFT+U (Dudarev formulation) in eV:
     U(Zr-4d) =  3.0000
     U(Ti-3d) =  5.0000

     Internal variables: lda_plus_u = T, lda_plus_u_kind = 0

     celldm(1)=  17.842794  celldm(2)=   0.000000  celldm(3)=   0.000000
     celldm(4)=   0.000000  celldm(5)=   0.000000  celldm(6)=   0.000000

     crystal axes: (cart. coord. in units of alat)
               a(1) = (   1.000000   0.000000   0.000000 )  
               a(2) = (   0.000000   0.608494   0.531032 )  
               a(3) = (   0.000000   0.000000   0.531032 )  

     reciprocal axes: (cart. coord. in units 2 pi/alat)
               b(1) = (  1.000000  0.000000  0.000000 )  
               b(2) = (  0.000000  1.643402  0.000000 )  
               b(3) = (  0.000000 -1.643402  1.883127 )  


     PseudoPot. # 1 for Zr read from file:
     /home/valmzztt/HEO_calc/TiO2-pers/pseudos/Zr.pbesol-spn-kjpaw_psl.1.0.0.UPF
     MD5 check sum: 1fbcb81bda2d05110d1d7f3623c0e807
     Pseudo is Projector augmented-wave + core cor, Zval = 12.0
     Generated using &quot;atomic&quot; code by A. Dal Corso  v.6.2.2
     Shape of augmentation charge: PSQ
     Using radial grid of 1225 points,  6 beta functions with: 
                l(1) =   0
                l(2) =   0
                l(3) =   1
                l(4) =   1
                l(5) =   2
                l(6) =   2
     Q(r) pseudized with 0 coefficients 


     PseudoPot. # 2 for Ti read from file:
     /home/valmzztt/HEO_calc/TiO2-pers/pseudos/Ti.pbesol-spn-kjpaw_psl.1.0.0.UPF
     MD5 check sum: 37a32a5821746b2d50d64995a8e5b789
     Pseudo is Projector augmented-wave + core cor, Zval = 12.0
     Generated using &quot;atomic&quot; code by A. Dal Corso  v.6.2.2
     Shape of augmentation charge: PSQ
     Using radial grid of 1177 points,  6 beta functions with: 
                l(1) =   0
                l(2) =   0
                l(3) =   1
                l(4) =   1
                l(5) =   2
                l(6) =   2
     Q(r) pseudized with 0 coefficients 


     PseudoPot. # 3 for O  read from file:
     /home/valmzztt/HEO_calc/TiO2-pers/pseudos/O.pbesol-n-kjpaw_psl.1.0.0.UPF
     MD5 check sum: cb766521a97cf798d01896eaf7ac9a0a
     Pseudo is Projector augmented-wave + core cor, Zval =  6.0
     Generated using &quot;atomic&quot; code by A. Dal Corso  v.6.3
     Shape of augmentation charge: PSQ
     Using radial grid of 1095 points,  4 beta functions with: 
                l(1) =   0
                l(2) =   0
                l(3) =   1
                l(4) =   1
     Q(r) pseudized with 0 coefficients 


     atomic species   valence    mass     pseudopotential
        Zr            12.00    91.22400     Zr( 1.00)
        Ti            12.00    47.86700     Ti( 1.00)
        O              6.00    15.99900     O ( 1.00)

      2 Sym. Ops. (no inversion) found ( 1 have fractional translation)



   Cartesian axes

     site n.     atom                  positions (alat units)
         1           Zr  tau(   1) = (   0.0000000   0.1968356   0.3982737  )
         2           Ti  tau(   2) = (   0.0000000   0.4116583   0.6637895  )
         3           O   tau(   3) = (   0.1143400   0.2316171   0.2223695  )
         4           O   tau(   4) = (   0.1143400   0.3768768   0.4878852  )
         5           O   tau(   5) = (   0.1356600   0.0726298   0.4878852  )
         6           O   tau(   6) = (   0.1356600   0.5358641   0.7534010  )
         7           Zr  tau(   7) = (   0.2500000   0.1074114   0.1327579  )
         8           Ti  tau(   8) = (   0.2500000   0.5010826   0.9293052  )
         9           O   tau(   9) = (   0.3643400   0.0726298   0.3086621  )
        10           O   tau(  10) = (   0.3643400   0.5358641   0.5741779  )
        11           O   tau(  11) = (   0.3856600   0.2316171   0.5741779  )
        12           O   tau(  12) = (   0.3856600   0.3768768   0.8396937  )
        13           Zr  tau(  13) = (   0.5000000   0.1968356   0.3982737  )
        14           Ti  tau(  14) = (   0.5000000   0.4116583   0.6637895  )
        15           O   tau(  15) = (   0.6143400   0.2316171   0.2223695  )
        16           O   tau(  16) = (   0.6143400   0.3768768   0.4878852  )
        17           O   tau(  17) = (   0.6356600   0.0726298   0.4878852  )
        18           O   tau(  18) = (   0.6356600   0.5358641   0.7534010  )
        19           Ti  tau(  19) = (   0.7500000   0.1074114   0.1327579  )
        20           Ti  tau(  20) = (   0.7500000   0.5010826   0.9293052  )
        21           O   tau(  21) = (   0.8643400   0.0726298   0.3086621  )
        22           O   tau(  22) = (   0.8643400   0.5358641   0.5741779  )
        23           O   tau(  23) = (   0.8856600   0.2316171   0.5741779  )
        24           O   tau(  24) = (   0.8856600   0.3768768   0.8396937  )

     number of k points=    30  Gaussian smearing, width (Ry)=  0.0147
                       cart. coord. in units 2pi/alat
        k(    1) = (   0.0000000   0.0000000   0.0000000), wk =   0.0312500
        k(    2) = (   0.0000000  -0.4108504   0.4707818), wk =   0.1250000
        k(    3) = (   0.0000000   0.8217008  -0.9415636), wk =   0.0312500
        k(    4) = (   0.0000000   0.4108504   0.0000000), wk =   0.0625000
        k(    5) = (   0.0000000   0.0000000   0.4707818), wk =   0.0625000
        k(    6) = (   0.0000000   1.2325513  -0.9415636), wk =   0.0625000
        k(    7) = (   0.0000000   0.8217008  -0.4707818), wk =   0.0625000
        k(    8) = (   0.0000000  -0.8217008   0.0000000), wk =   0.0312500
        k(    9) = (   0.0000000   0.0000000  -0.9415636), wk =   0.0312500
        k(   10) = (   0.2500000   0.0000000   0.0000000), wk =   0.0625000
        k(   11) = (   0.2500000  -0.4108504   0.4707818), wk =   0.1250000
        k(   12) = (   0.2500000   0.8217008  -0.9415636), wk =   0.0625000
        k(   13) = (   0.2500000   0.4108504   0.0000000), wk =   0.1250000
        k(   14) = (   0.2500000   0.0000000   0.4707818), wk =   0.0625000
        k(   15) = (   0.2500000   1.2325513  -0.9415636), wk =   0.1250000
        k(   16) = (   0.2500000   0.8217008  -0.4707818), wk =   0.0625000
        k(   17) = (   0.2500000  -0.8217008   0.0000000), wk =   0.0625000
        k(   18) = (   0.2500000   0.0000000  -0.9415636), wk =   0.0625000
        k(   19) = (  -0.5000000   0.0000000   0.0000000), wk =   0.0312500
        k(   20) = (  -0.5000000  -0.4108504   0.4707818), wk =   0.1250000
        k(   21) = (  -0.5000000   0.8217008  -0.9415636), wk =   0.0312500
        k(   22) = (  -0.5000000   0.4108504   0.0000000), wk =   0.0625000
        k(   23) = (  -0.5000000   0.0000000   0.4707818), wk =   0.0625000
        k(   24) = (  -0.5000000   1.2325513  -0.9415636), wk =   0.0625000
        k(   25) = (  -0.5000000   0.8217008  -0.4707818), wk =   0.0625000
        k(   26) = (  -0.5000000  -0.8217008   0.0000000), wk =   0.0312500
        k(   27) = (  -0.5000000   0.0000000  -0.9415636), wk =   0.0312500
        k(   28) = (  -0.2500000   0.4108504   0.4707818), wk =   0.1250000
        k(   29) = (  -0.2500000   0.0000000   0.4707818), wk =   0.0625000
        k(   30) = (  -0.2500000  -0.8217008  -0.4707818), wk =   0.0625000

     Dense  grid:    63661 G-vectors     FFT dimensions: (  80,  60,  40)

     Estimated max dynamical RAM per process >      39.00 MB

     Estimated total dynamical RAM >       1.05 GB

     Check: negative core charge=   -0.000091

     Initial potential from superposition of free atoms

     starting charge     191.9872, renormalised to     192.0000

     STARTING HUBBARD OCCUPATIONS:

     =================== HUBBARD OCCUPATIONS ===================
     ------------------------ ATOM    1 ------------------------
     Tr[ns(  1)] =   2.00000
     eigenvalues:
       0.200  0.200  0.200  0.200  0.200
     eigenvectors (columns):
       1.000  0.000  0.000  0.000  0.000
       0.000  1.000  0.000  0.000  0.000
       0.000  0.000  1.000  0.000  0.000
       0.000  0.000  0.000  1.000  0.000
       0.000  0.000  0.000  0.000  1.000
     occupation matrix ns (before diag.):
       0.200  0.000  0.000  0.000  0.000
       0.000  0.200  0.000  0.000  0.000
       0.000  0.000  0.200  0.000  0.000
       0.000  0.000  0.000  0.200  0.000
       0.000  0.000  0.000  0.000  0.200
     ------------------------ ATOM    2 ------------------------
     Tr[ns(  2)] =   2.00000
     eigenvalues:
       0.200  0.200  0.200  0.200  0.200
     eigenvectors (columns):
       1.000  0.000  0.000  0.000  0.000
       0.000  1.000  0.000  0.000  0.000
       0.000  0.000  1.000  0.000  0.000
       0.000  0.000  0.000  1.000  0.000
       0.000  0.000  0.000  0.000  1.000
     occupation matrix ns (before diag.):
       0.200  0.000  0.000  0.000  0.000
       0.000  0.200  0.000  0.000  0.000
       0.000  0.000  0.200  0.000  0.000
       0.000  0.000  0.000  0.200  0.000
       0.000  0.000  0.000  0.000  0.200
     ------------------------ ATOM    7 ------------------------
     Tr[ns(  7)] =   2.00000
     eigenvalues:
       0.200  0.200  0.200  0.200  0.200
     eigenvectors (columns):
       1.000  0.000  0.000  0.000  0.000
       0.000  1.000  0.000  0.000  0.000
       0.000  0.000  1.000  0.000  0.000
       0.000  0.000  0.000  1.000  0.000
       0.000  0.000  0.000  0.000  1.000
     occupation matrix ns (before diag.):
       0.200  0.000  0.000  0.000  0.000
       0.000  0.200  0.000  0.000  0.000
       0.000  0.000  0.200  0.000  0.000
       0.000  0.000  0.000  0.200  0.000
       0.000  0.000  0.000  0.000  0.200
     ------------------------ ATOM    8 ------------------------
     Tr[ns(  8)] =   2.00000
     eigenvalues:
       0.200  0.200  0.200  0.200  0.200
     eigenvectors (columns):
       1.000  0.000  0.000  0.000  0.000
       0.000  1.000  0.000  0.000  0.000
       0.000  0.000  1.000  0.000  0.000
       0.000  0.000  0.000  1.000  0.000
       0.000  0.000  0.000  0.000  1.000
     occupation matrix ns (before diag.):
       0.200  0.000  0.000  0.000  0.000
       0.000  0.200  0.000  0.000  0.000
       0.000  0.000  0.200  0.000  0.000
       0.000  0.000  0.000  0.200  0.000
       0.000  0.000  0.000  0.000  0.200
     ------------------------ ATOM   13 ------------------------
     Tr[ns( 13)] =   2.00000
     eigenvalues:
       0.200  0.200  0.200  0.200  0.200
     eigenvectors (columns):
       1.000  0.000  0.000  0.000  0.000
       0.000  1.000  0.000  0.000  0.000
       0.000  0.000  1.000  0.000  0.000
       0.000  0.000  0.000  1.000  0.000
       0.000  0.000  0.000  0.000  1.000
     occupation matrix ns (before diag.):
       0.200  0.000  0.000  0.000  0.000
       0.000  0.200  0.000  0.000  0.000
       0.000  0.000  0.200  0.000  0.000
       0.000  0.000  0.000  0.200  0.000
       0.000  0.000  0.000  0.000  0.200
     ------------------------ ATOM   14 ------------------------
     Tr[ns( 14)] =   2.00000
     eigenvalues:
       0.200  0.200  0.200  0.200  0.200
     eigenvectors (columns):
       1.000  0.000  0.000  0.000  0.000
       0.000  1.000  0.000  0.000  0.000
       0.000  0.000  1.000  0.000  0.000
       0.000  0.000  0.000  1.000  0.000
       0.000  0.000  0.000  0.000  1.000
     occupation matrix ns (before diag.):
       0.200  0.000  0.000  0.000  0.000
       0.000  0.200  0.000  0.000  0.000
       0.000  0.000  0.200  0.000  0.000
       0.000  0.000  0.000  0.200  0.000
       0.000  0.000  0.000  0.000  0.200
     ------------------------ ATOM   19 ------------------------
     Tr[ns( 19)] =   2.00000
     eigenvalues:
       0.200  0.200  0.200  0.200  0.200
     eigenvectors (columns):
       1.000  0.000  0.000  0.000  0.000
       0.000  1.000  0.000  0.000  0.000
       0.000  0.000  1.000  0.000  0.000
       0.000  0.000  0.000  1.000  0.000
       0.000  0.000  0.000  0.000  1.000
     occupation matrix ns (before diag.):
       0.200  0.000  0.000  0.000  0.000
       0.000  0.200  0.000  0.000  0.000
       0.000  0.000  0.200  0.000  0.000
       0.000  0.000  0.000  0.200  0.000
       0.000  0.000  0.000  0.000  0.200
     ------------------------ ATOM   20 ------------------------
     Tr[ns( 20)] =   2.00000
     eigenvalues:
       0.200  0.200  0.200  0.200  0.200
     eigenvectors (columns):
       1.000  0.000  0.000  0.000  0.000
       0.000  1.000  0.000  0.000  0.000
       0.000  0.000  1.000  0.000  0.000
       0.000  0.000  0.000  1.000  0.000
       0.000  0.000  0.000  0.000  1.000
     occupation matrix ns (before diag.):
       0.200  0.000  0.000  0.000  0.000
       0.000  0.200  0.000  0.000  0.000
       0.000  0.000  0.200  0.000  0.000
       0.000  0.000  0.000  0.200  0.000
       0.000  0.000  0.000  0.000  0.200

     Number of occupied Hubbard levels =   16.0000

     Atomic wfc used for Hubbard projectors are orthogonalized

     Starting wfcs are  153 randomized atomic wfcs
     Checking if some PAW data can be deallocated... 

     total cpu time spent up to now is        3.2 secs

     Self-consistent Calculation

     iteration #  1     ecut=    40.42 Ry     beta= 0.70
     Davidson diagonalization with overlap
     ethr =  1.00E-02,  avg # of iterations =  2.0

     =================== HUBBARD OCCUPATIONS ===================
     ------------------------ ATOM    1 ------------------------
     Tr[ns(  1)] =   1.48435
     eigenvalues:
       0.108  0.111  0.113  0.203  0.207
     eigenvectors (columns):
      -0.181  0.835  0.029 -0.101  0.508
       0.069 -0.497 -0.216 -0.150  0.824
      -0.777 -0.172  0.170  0.571  0.110
       0.229 -0.091  0.954 -0.032  0.170
      -0.554 -0.131  0.120 -0.800 -0.147
     occupation matrix ns (before diag.):
       0.137  0.042 -0.000  0.009  0.000
       0.042  0.178  0.001  0.014 -0.000
      -0.000  0.001  0.141  0.001 -0.045
       0.009  0.014  0.001  0.115  0.001
       0.000 -0.000 -0.045  0.001  0.171
     ------------------------ ATOM    2 ------------------------
     Tr[ns(  2)] =   0.88674
     eigenvalues:
       0.056  0.058  0.060  0.131  0.139
     eigenvectors (columns):
       0.121  0.737 -0.421 -0.004  0.515
      -0.061 -0.534  0.074 -0.010  0.840
      -0.807  0.079 -0.091  0.579  0.006
      -0.061  0.403  0.897 -0.000  0.173
      -0.572  0.058 -0.064 -0.816 -0.008
     occupation matrix ns (before diag.):
       0.080  0.035  0.000  0.006  0.000
       0.035  0.115 -0.000  0.012 -0.000
       0.000 -0.000  0.081 -0.000 -0.035
       0.006  0.012 -0.000  0.062 -0.000
       0.000 -0.000 -0.035 -0.000  0.106
     ------------------------ ATOM    7 ------------------------
     Tr[ns(  7)] =   1.46048
     eigenvalues:
       0.106  0.106  0.110  0.203  0.205
     eigenvectors (columns):
      -0.000  0.807  0.275  0.000 -0.522
      -0.000  0.417  0.360  0.000  0.835
      -0.815 -0.000  0.000  0.579 -0.000
       0.000 -0.418  0.891 -0.000 -0.176
       0.579  0.000 -0.000  0.815  0.000
     occupation matrix ns (before diag.):
       0.134 -0.043 -0.000  0.010  0.000
      -0.043  0.176 -0.000 -0.013  0.000
      -0.000 -0.000  0.138  0.000  0.046
       0.010 -0.013  0.000  0.112 -0.000
       0.000  0.000  0.046 -0.000  0.170
     ------------------------ ATOM    8 ------------------------
     Tr[ns(  8)] =   0.87422
     eigenvalues:
       0.055  0.056  0.059  0.129  0.138
     eigenvectors (columns):
      -0.000  0.672 -0.534  0.000  0.513
      -0.000  0.518 -0.154  0.000 -0.841
      -0.813 -0.000  0.000  0.583  0.000
      -0.000  0.528  0.831 -0.000  0.173
       0.583  0.000 -0.000  0.813 -0.000
     occupation matrix ns (before diag.):
       0.078 -0.035  0.000  0.006  0.000
      -0.035  0.114 -0.000 -0.012  0.000
       0.000 -0.000  0.080  0.000  0.035
       0.006 -0.012  0.000  0.060 -0.000
       0.000  0.000  0.035 -0.000  0.104
     ------------------------ ATOM   13 ------------------------
     Tr[ns( 13)] =   1.48435
     eigenvalues:
       0.108  0.111  0.113  0.203  0.207
     eigenvectors (columns):
       0.181 -0.835  0.029  0.101 -0.508
      -0.069  0.497 -0.216  0.150 -0.824
      -0.777 -0.172 -0.170  0.571  0.110
      -0.229  0.091  0.954  0.032 -0.170
      -0.554 -0.131 -0.120 -0.800 -0.147
     occupation matrix ns (before diag.):
       0.137  0.042  0.000  0.009 -0.000
       0.042  0.178 -0.001  0.014  0.000
       0.000 -0.001  0.141 -0.001 -0.045
       0.009  0.014 -0.001  0.115 -0.001
      -0.000  0.000 -0.045 -0.001  0.171
     ------------------------ ATOM   14 ------------------------
     Tr[ns( 14)] =   0.88674
     eigenvalues:
       0.056  0.058  0.060  0.131  0.139
     eigenvectors (columns):
      -0.121  0.737  0.421  0.004 -0.515
       0.061 -0.534 -0.074  0.010 -0.840
      -0.807 -0.079 -0.091  0.579  0.006
       0.061  0.403 -0.897  0.000 -0.173
      -0.572 -0.058 -0.064 -0.816 -0.008
     occupation matrix ns (before diag.):
       0.080  0.035 -0.000  0.006 -0.000
       0.035  0.115  0.000  0.012  0.000
      -0.000  0.000  0.081  0.000 -0.035
       0.006  0.012  0.000  0.062  0.000
      -0.000  0.000 -0.035  0.000  0.106
     ------------------------ ATOM   19 ------------------------
     Tr[ns( 19)] =   0.87872
     eigenvalues:
       0.055  0.056  0.059  0.133  0.137
     eigenvectors (columns):
      -0.000 -0.848  0.062  0.000  0.526
      -0.000 -0.497  0.251  0.000 -0.831
      -0.819  0.000  0.000  0.574  0.000
       0.000  0.183  0.966 -0.000  0.182
       0.574 -0.000 -0.000  0.819 -0.000
     occupation matrix ns (before diag.):
       0.078 -0.035  0.000  0.008  0.000
      -0.035  0.112 -0.000 -0.012  0.000
       0.000 -0.000  0.081  0.000  0.037
       0.008 -0.012  0.000  0.061 -0.000
       0.000  0.000  0.037 -0.000  0.107
     ------------------------ ATOM   20 ------------------------
     Tr[ns( 20)] =   0.89136
     eigenvalues:
       0.057  0.057  0.060  0.131  0.140
     eigenvectors (columns):
      -0.000  0.609 -0.604  0.000  0.515
      -0.000  0.503 -0.209  0.000 -0.839
      -0.811 -0.000  0.000  0.585  0.000
      -0.000  0.614  0.769 -0.000  0.176
       0.585  0.000 -0.000  0.811 -0.000
     occupation matrix ns (before diag.):
       0.080 -0.035 -0.000  0.006  0.000
      -0.035  0.116 -0.000 -0.013  0.000
      -0.000 -0.000  0.082  0.000  0.035
       0.006 -0.013  0.000  0.062 -0.000
       0.000  0.000  0.035 -0.000  0.106

     Number of occupied Hubbard levels =    8.8469

     total cpu time spent up to now is        6.7 secs

     total energy              =   -2471.02989253 Ry
     estimated scf accuracy    <      12.58124709 Ry

     iteration #  2     ecut=    40.42 Ry     beta= 0.70
     Davidson diagonalization with overlap
     ethr =  6.55E-03,  avg # of iterations =  9.0

     total cpu time spent up to now is       15.3 secs

     total energy              =   -2451.86369941 Ry
     estimated scf accuracy    <     191.99704442 Ry

     iteration #  3     ecut=    40.42 Ry     beta= 0.70
     Davidson diagonalization with overlap
     c_bands:  1 eigenvalues not converged
     ethr =  6.55E-03,  avg # of iterations = 12.0

     total cpu time spent up to now is       24.5 secs

     total energy              =   -2477.08042615 Ry
     estimated scf accuracy    <       8.13914837 Ry

     iteration #  4     ecut=    40.42 Ry     beta= 0.70
     Davidson diagonalization with overlap
     ethr =  4.24E-03,  avg # of iterations =  2.0

     total cpu time spent up to now is       28.2 secs

     total energy              =   -2477.60436165 Ry
     estimated scf accuracy    <       2.37029872 Ry

     iteration #  5     ecut=    40.42 Ry     beta= 0.70
     Davidson diagonalization with overlap
     ethr =  1.23E-03,  avg # of iterations =  4.5

     total cpu time spent up to now is       33.0 secs

     total energy              =   -2477.63992404 Ry
     estimated scf accuracy    <       1.37526343 Ry

     iteration #  6     ecut=    40.42 Ry     beta= 0.70
     Davidson diagonalization with overlap
     ethr =  7.16E-04,  avg # of iterations =  9.9

     total cpu time spent up to now is       40.4 secs

     total energy              =   -2477.73169923 Ry
     estimated scf accuracy    <       0.58975797 Ry

     iteration #  7     ecut=    40.42 Ry     beta= 0.70
     Davidson diagonalization with overlap
     c_bands:  1 eigenvalues not converged
     ethr =  3.07E-04,  avg # of iterations =  9.4

     total cpu time spent up to now is       48.7 secs

     total energy              =   -2477.75625892 Ry
     estimated scf accuracy    <       0.24782983 Ry

     iteration #  8     ecut=    40.42 Ry     beta= 0.70
     Davidson diagonalization with overlap
     c_bands:  2 eigenvalues not converged
     ethr =  1.29E-04,  avg # of iterations =  8.4

     total cpu time spent up to now is       55.6 secs

     total energy              =   -2477.79326662 Ry
     estimated scf accuracy    <       0.05361543 Ry

     iteration #  9     ecut=    40.42 Ry     beta= 0.70
     Davidson diagonalization with overlap
     c_bands:  1 eigenvalues not converged
     c_bands:  3 eigenvalues not converged
     c_bands:  2 eigenvalues not converged
     ethr =  2.79E-05,  avg # of iterations = 15.3

     total cpu time spent up to now is       65.6 secs

     total energy              =   -2477.81868890 Ry
     estimated scf accuracy    <       0.00946085 Ry

     iteration # 10     ecut=    40.42 Ry     beta= 0.70
     Davidson diagonalization with overlap
     c_bands:  4 eigenvalues not converged
     c_bands:  4 eigenvalues not converged
     c_bands:  4 eigenvalues not converged
     c_bands:  2 eigenvalues not converged
     ethr =  4.93E-06,  avg # of iterations = 14.9

     total cpu time spent up to now is       76.1 secs

     total energy              =   -2477.82107365 Ry
     estimated scf accuracy    <       0.00883147 Ry

     iteration # 11     ecut=    40.42 Ry     beta= 0.70
     Davidson diagonalization with overlap
     c_bands:  1 eigenvalues not converged
     c_bands:  2 eigenvalues not converged
     ethr =  4.60E-06,  avg # of iterations =  8.4

     total cpu time spent up to now is       82.4 secs

     total energy              =   -2477.81935506 Ry
     estimated scf accuracy    <       0.00674446 Ry

     iteration # 12     ecut=    40.42 Ry     beta= 0.70
     Davidson diagonalization with overlap
     c_bands:  1 eigenvalues not converged
     ethr =  3.51E-06,  avg # of iterations =  7.8

     total cpu time spent up to now is       89.3 secs

     total energy              =   -2477.82199266 Ry
     estimated scf accuracy    <       0.00357019 Ry

     iteration # 13     ecut=    40.42 Ry     beta= 0.70
     Davidson diagonalization with overlap
     c_bands:  1 eigenvalues not converged
     ethr =  1.86E-06,  avg # of iterations =  3.3

     total cpu time spent up to now is       93.2 secs

     total energy              =   -2477.82072866 Ry
     estimated scf accuracy    <       0.00357248 Ry

     iteration # 14     ecut=    40.42 Ry     beta= 0.70
     Davidson diagonalization with overlap
     c_bands:  1 eigenvalues not converged
     ethr =  1.86E-06,  avg # of iterations =  4.2

     total cpu time spent up to now is       98.0 secs

     total energy              =   -2477.82114037 Ry
     estimated scf accuracy    <       0.00030104 Ry

     iteration # 15     ecut=    40.42 Ry     beta= 0.70
     Davidson diagonalization with overlap
     c_bands:  1 eigenvalues not converged
     c_bands:  1 eigenvalues not converged
     ethr =  1.57E-07,  avg # of iterations =  6.2

     total cpu time spent up to now is      105.2 secs

     total energy              =   -2477.82139056 Ry
     estimated scf accuracy    <       0.00041870 Ry

     iteration # 16     ecut=    40.42 Ry     beta= 0.70
     Davidson diagonalization with overlap
     ethr =  1.57E-07,  avg # of iterations =  2.0

     total cpu time spent up to now is      108.8 secs

     total energy              =   -2477.82137123 Ry
     estimated scf accuracy    <       0.00010449 Ry

     iteration # 17     ecut=    40.42 Ry     beta= 0.70
     Davidson diagonalization with overlap
     ethr =  5.44E-08,  avg # of iterations =  5.0

     total cpu time spent up to now is      114.5 secs

     total energy              =   -2477.82143151 Ry
     estimated scf accuracy    <       0.00002025 Ry

     iteration # 18     ecut=    40.42 Ry     beta= 0.70
     Davidson diagonalization with overlap
     ethr =  1.05E-08,  avg # of iterations =  5.4

     total cpu time spent up to now is      120.3 secs

     total energy              =   -2477.82142656 Ry
     estimated scf accuracy    <       0.00005102 Ry

     iteration # 19     ecut=    40.42 Ry     beta= 0.70
     Davidson diagonalization with overlap
     ethr =  1.05E-08,  avg # of iterations =  1.6

     total cpu time spent up to now is      123.7 secs

     total energy              =   -2477.82141891 Ry
     estimated scf accuracy    <       0.00002404 Ry

     iteration # 20     ecut=    40.42 Ry     beta= 0.70
     Davidson diagonalization with overlap
     ethr =  1.05E-08,  avg # of iterations =  4.1

     total cpu time spent up to now is      128.4 secs

     End of self-consistent calculation

     =================== HUBBARD OCCUPATIONS ===================
     ------------------------ ATOM    1 ------------------------
     Tr[ns(  1)] =   2.16644
     eigenvalues:
       0.165  0.171  0.183  0.279  0.285
     eigenvectors (columns):
       0.117 -0.779  0.316  0.071 -0.524
      -0.060  0.552 -0.006  0.142 -0.819
      -0.813 -0.131 -0.035  0.561  0.069
       0.080 -0.257 -0.948  0.017 -0.169
      -0.561 -0.068 -0.018 -0.812 -0.145
     occupation matrix ns (before diag.):
       0.204  0.050  0.001  0.006  0.003
       0.050  0.249  0.002  0.016  0.001
       0.001  0.002  0.202  0.001 -0.053
       0.006  0.016  0.001  0.185  0.002
       0.003  0.001 -0.053  0.002  0.243
     ------------------------ ATOM    2 ------------------------
     Tr[ns(  2)] =   2.00542
     eigenvalues:
       0.129  0.138  0.163  0.279  0.294
     eigenvectors (columns):
       0.073  0.767 -0.386  0.008 -0.508
      -0.063 -0.537  0.027  0.023 -0.840
       0.813 -0.091 -0.030  0.574  0.013
       0.080  0.331  0.921 -0.008 -0.188
       0.568 -0.075 -0.034 -0.819 -0.019
     occupation matrix ns (before diag.):
       0.182  0.067 -0.001  0.006  0.000
       0.067  0.248  0.001  0.025  0.000
      -0.001  0.001  0.178 -0.002 -0.071
       0.006  0.025 -0.002  0.164  0.000
       0.000  0.000 -0.071  0.000  0.230
     ------------------------ ATOM    7 ------------------------
     Tr[ns(  7)] =   2.16480
     eigenvalues:
       0.166  0.170  0.180  0.281  0.286
     eigenvectors (columns):
      -0.000  0.807 -0.242  0.000 -0.539
      -0.000  0.565  0.046 -0.000  0.824
      -0.829 -0.000  0.000  0.559 -0.000
       0.000  0.174  0.969 -0.000 -0.174
       0.559  0.000 -0.000  0.829  0.000
     occupation matrix ns (before diag.):
       0.204 -0.052 -0.000  0.008  0.000
      -0.052  0.248 -0.000 -0.016  0.000
      -0.000 -0.000  0.202  0.000  0.053
       0.008 -0.016  0.000  0.183 -0.000
       0.000  0.000  0.053 -0.000  0.245
     ------------------------ ATOM    8 ------------------------
     Tr[ns(  8)] =   2.00448
     eigenvalues:
       0.129  0.138  0.161  0.279  0.295
     eigenvectors (columns):
      -0.000 -0.768 -0.401  0.000  0.499
      -0.000 -0.534 -0.029 -0.000 -0.845
      -0.812  0.000  0.000  0.584  0.000
      -0.000 -0.353  0.916 -0.000  0.192
       0.584 -0.000 -0.000  0.812 -0.000
     occupation matrix ns (before diag.):
       0.181 -0.066 -0.000  0.006  0.000
      -0.066  0.250 -0.000 -0.026  0.000
      -0.000 -0.000  0.180  0.000  0.071
       0.006 -0.026  0.000  0.163 -0.000
       0.000  0.000  0.071 -0.000  0.228
     ------------------------ ATOM   13 ------------------------
     Tr[ns( 13)] =   2.16644
     eigenvalues:
       0.165  0.171  0.183  0.279  0.285
     eigenvectors (columns):
       0.117  0.779 -0.316 -0.071  0.524
      -0.060 -0.552  0.006 -0.142  0.819
       0.813 -0.131 -0.035  0.561  0.069
       0.080  0.257  0.948 -0.017  0.169
       0.561 -0.068 -0.018 -0.812 -0.145
     occupation matrix ns (before diag.):
       0.204  0.050 -0.001  0.006 -0.003
       0.050  0.249 -0.002  0.016 -0.001
      -0.001 -0.002  0.202 -0.001 -0.053
       0.006  0.016 -0.001  0.185 -0.002
      -0.003 -0.001 -0.053 -0.002  0.243
     ------------------------ ATOM   14 ------------------------
     Tr[ns( 14)] =   2.00542
     eigenvalues:
       0.129  0.138  0.163  0.279  0.294
     eigenvectors (columns):
      -0.073 -0.767 -0.386 -0.008  0.508
       0.063  0.537  0.027 -0.023  0.840
       0.813 -0.091  0.030  0.574  0.013
      -0.080 -0.331  0.921  0.008  0.188
       0.568 -0.075  0.034 -0.819 -0.019
     occupation matrix ns (before diag.):
       0.182  0.067  0.001  0.006 -0.000
       0.067  0.248 -0.001  0.025 -0.000
       0.001 -0.001  0.178  0.002 -0.071
       0.006  0.025  0.002  0.164 -0.000
      -0.000 -0.000 -0.071 -0.000  0.230
     ------------------------ ATOM   19 ------------------------
     Tr[ns( 19)] =   2.00586
     eigenvalues:
       0.133  0.137  0.157  0.280  0.296
     eigenvectors (columns):
      -0.000  0.789  0.280  0.000  0.547
      -0.000  0.577 -0.034 -0.000 -0.816
      -0.839 -0.000 -0.000  0.544  0.000
      -0.000  0.210 -0.959 -0.000  0.189
       0.544  0.000  0.000  0.839 -0.000
     occupation matrix ns (before diag.):
       0.186 -0.071 -0.000  0.011  0.000
      -0.071  0.243 -0.000 -0.024  0.000
      -0.000 -0.000  0.176  0.000  0.067
       0.011 -0.024  0.000  0.161 -0.000
       0.000  0.000  0.067 -0.000  0.237
     ------------------------ ATOM   20 ------------------------
     Tr[ns( 20)] =   2.00398
     eigenvalues:
       0.128  0.139  0.162  0.280  0.294
     eigenvectors (columns):
      -0.000 -0.780 -0.372  0.000  0.503
      -0.000 -0.535 -0.021 -0.000 -0.845
      -0.812  0.000  0.000  0.584  0.000
       0.000 -0.325  0.928 -0.000  0.183
       0.584 -0.000 -0.000  0.812 -0.000
     occupation matrix ns (before diag.):
       0.181 -0.066 -0.000  0.006  0.000
      -0.066  0.249 -0.000 -0.024  0.000
      -0.000 -0.000  0.180  0.000  0.072
       0.006 -0.024  0.000  0.164 -0.000
       0.000  0.000  0.072 -0.000  0.228

     Number of occupied Hubbard levels =   16.5228

          k = 0.0000 0.0000 0.0000 (  7991 PWs)   bands (ev):

   -48.9536 -48.9260 -48.9249 -48.8840 -48.8579 -38.0748 -38.0656 -38.0365
   -25.2590 -25.2551 -25.2316 -25.2289 -25.2089 -25.2040 -25.1865 -25.1838
   -25.1657 -25.1329 -25.1326 -25.1169 -25.0999 -25.0818 -25.0683 -16.8238
   -16.7495 -16.6535 -16.6087 -16.5282 -16.5053 -16.3883 -16.3791 -16.3103
    -8.3943  -7.6483  -7.5889  -7.3666  -7.2369  -7.1511  -7.0983  -7.0682
    -7.0211  -6.9297  -6.8999  -6.8371  -6.5535  -6.3916  -6.2756  -6.1823
     4.1191   4.6083   4.7774   4.8056   4.9317   4.9348   5.0255   5.1573
     5.1937   5.1949   5.3136   5.3664   5.4319   5.4607   5.4693   5.7717
     5.7949   5.8701   6.0107   6.3015   6.4437   6.6246   6.6316   6.6751
     6.8821   6.9729   7.0064   7.1188   7.1824   7.2796   7.3080   7.3441
     7.5695   7.6047   7.6256   7.7050   7.7574   7.8101   8.0854   8.3332
     8.4727   8.5333   8.5427   8.5768   8.7357   8.7488   8.8451   8.9463
    12.0375  12.0845  12.1210  12.3231  12.3655  12.4599  12.4691  12.6029
    12.6244  12.6304  12.6657  12.6920  12.7463  12.7991  13.0015  13.5605
    13.6507  13.8099  13.8444

          k = 0.0000-0.4109 0.4708 (  7964 PWs)   bands (ev):

   -48.9527 -48.9251 -48.9244 -48.8825 -48.8582 -38.0703 -38.0624 -38.0400
   -25.2612 -25.2495 -25.2324 -25.2279 -25.2177 -25.2105 -25.2020 -25.1733
   -25.1644 -25.1322 -25.1257 -25.1114 -25.0945 -25.0858 -25.0703 -16.8309
   -16.7888 -16.6464 -16.6086 -16.5344 -16.4977 -16.3872 -16.3672 -16.3031
    -8.0269  -7.5912  -7.5848  -7.3460  -7.3091  -7.2534  -7.1732  -7.1023
    -7.0439  -6.9648  -6.8405  -6.7636  -6.5825  -6.4392  -6.3663  -6.2663
     4.4890   4.6209   4.7060   4.8027   4.9330   5.0331   5.0494   5.1396
     5.2112   5.2673   5.3119   5.3791   5.4841   5.5405   5.6388   5.7228
     5.9334   5.9777   6.0976   6.1669   6.2124   6.5900   6.6796   6.7191
     6.8708   6.9015   7.0000   7.0393   7.1651   7.2266   7.2754   7.3594
     7.3897   7.6111   7.6492   7.7097   7.8658   8.0618   8.0907   8.1186
     8.1988   8.2672   8.3265   8.4499   8.5406   8.5515   8.7508   8.8161
    12.0055  12.1620  12.1952  12.2095  12.3127  12.4563  12.5153  12.5774
    12.6449  12.6808  12.7650  12.8013  12.8470  12.9050  13.0447  13.4982
    13.6403  13.7515  13.8144

          k = 0.0000 0.8217-0.9416 (  7972 PWs)   bands (ev):

   -48.9509 -48.9244 -48.9216 -48.8807 -48.8578 -38.0642 -38.0587 -38.0437
   -25.2610 -25.2476 -25.2319 -25.2316 -25.2275 -25.2168 -25.1973 -25.1938
   -25.1480 -25.1302 -25.1161 -25.1095 -25.0936 -25.0844 -25.0751 -16.8333
   -16.8165 -16.6813 -16.5876 -16.5307 -16.4953 -16.3866 -16.3557 -16.2964
    -7.5157  -7.5009  -7.4490  -7.4458  -7.3657  -7.3551  -7.2177  -7.1766
    -7.0542  -7.0145  -6.8063  -6.7449  -6.7422  -6.5260  -6.4031  -6.3469
     4.5950   4.6523   4.8155   4.8666   4.9487   5.0337   5.1071   5.1127
     5.2888   5.3009   5.3801   5.4592   5.5608   5.6009   5.6395   5.7188
     6.1491   6.1890   6.2014   6.3085   6.3211   6.3919   6.4084   6.5709
     6.6696   6.7249   7.0917   7.0996   7.1397   7.2007   7.3251   7.3497
     7.3783   7.5711   7.5941   7.6272   7.7858   7.8413   7.8491   7.9379
     8.1990   8.2078   8.2085   8.2558   8.5296   8.5367   8.6584   8.7093
    12.1128  12.1438  12.2495  12.2535  12.3167  12.3225  12.5235  12.5733
    12.6871  12.6920  12.7392  12.8145  12.8660  13.1023  13.1305  13.5579
    13.6105  13.6261  13.6628

          k = 0.0000 0.4109 0.0000 (  7990 PWs)   bands (ev):

   -48.9536 -48.9255 -48.9254 -48.8836 -48.8582 -38.0751 -38.0649 -38.0369
   -25.2592 -25.2542 -25.2313 -25.2290 -25.2091 -25.2018 -25.1861 -25.1830
   -25.1670 -25.1421 -25.1315 -25.1103 -25.0996 -25.0843 -25.0669 -16.8227
   -16.7490 -16.6535 -16.6088 -16.5289 -16.5086 -16.3881 -16.3792 -16.3100
    -8.2383  -7.6525  -7.6325  -7.3881  -7.2853  -7.2684  -7.1820  -7.0430
    -7.0066  -6.9380  -6.8729  -6.7757  -6.5466  -6.3786  -6.2670  -6.1809
     4.2908   4.5725   4.6457   4.8573   4.9442   4.9892   5.0007   5.1314
     5.2779   5.3634   5.3716   5.4195   5.5968   5.6313   5.6650   5.7600
     5.8696   5.9259   5.9719   6.1878   6.3683   6.4027   6.6428   6.6648
     6.8101   6.8529   6.9185   7.0494   7.0840   7.2021   7.2469   7.4500
     7.5806   7.6912   7.7023   7.7859   7.8046   7.9214   7.9638   8.0407
     8.2139   8.3348   8.3465   8.4348   8.7456   8.7603   8.8244   8.8839
    12.0399  12.1587  12.1984  12.2930  12.3515  12.4448  12.4647  12.5519
    12.6217  12.6761  12.6879  12.7049  12.8050  12.8420  13.0530  13.5158
    13.5702  13.7667  13.8687

          k = 0.0000 0.0000 0.4708 (  7941 PWs)   bands (ev):

   -48.9531 -48.9253 -48.9251 -48.8830 -48.8582 -38.0703 -38.0633 -38.0401
   -25.2613 -25.2498 -25.2327 -25.2269 -25.2169 -25.2114 -25.2016 -25.1705
   -25.1639 -25.1317 -25.1260 -25.1165 -25.0931 -25.0845 -25.0707 -16.8317
   -16.7897 -16.6450 -16.6094 -16.5320 -16.4958 -16.3875 -16.3670 -16.3033
    -8.1644  -7.5737  -7.5490  -7.3680  -7.2197  -7.2086  -7.1916  -7.1069
    -7.0088  -6.9421  -6.8985  -6.7186  -6.5942  -6.4348  -6.3901  -6.2706
     4.3252   4.6670   4.7181   4.8238   4.8985   5.0242   5.0490   5.0804
     5.1360   5.1783   5.2215   5.3106   5.4252   5.4704   5.5351   5.5913
     5.9719   6.0055   6.1143   6.2972   6.3945   6.5608   6.6030   6.7121
     6.8751   6.9593   7.0058   7.0617   7.0914   7.1355   7.1845   7.3694
     7.6614   7.7559   7.8686   7.8897   7.8918   8.0308   8.0733   8.1532
     8.1897   8.4538   8.4783   8.5123   8.5306   8.7102   8.7391   8.8405
    12.0173  12.1438  12.1957  12.2488  12.2717  12.4375  12.5178  12.5524
    12.6123  12.7087  12.7441  12.7865  12.7989  12.8690  13.0398  13.4971
    13.7035  13.7874  13.8810

          k = 0.0000 1.2326-0.9416 (  7934 PWs)   bands (ev):

   -48.9517 -48.9247 -48.9231 -48.8813 -48.8580 -38.0642 -38.0599 -38.0442
   -25.2607 -25.2482 -25.2321 -25.2291 -25.2287 -25.2159 -25.1982 -25.1873
   -25.1482 -25.1314 -25.1169 -25.1168 -25.0898 -25.0841 -25.0747 -16.8342
   -16.8177 -16.6799 -16.5873 -16.5284 -16.4939 -16.3867 -16.3551 -16.2965
    -7.5956  -7.5567  -7.4535  -7.4113  -7.3791  -7.3747  -7.2380  -7.1701
    -6.9973  -6.9935  -6.7682  -6.6988  -6.6817  -6.4963  -6.4516  -6.3836
     4.5713   4.6564   4.6949   4.8627   4.9194   5.0417   5.0448   5.1083
     5.1855   5.2191   5.2806   5.3440   5.4004   5.4245   5.9098   5.9489
     6.0549   6.0713   6.2453   6.3159   6.3737   6.4239   6.4812   6.5171
     6.6266   6.7227   7.0754   7.1129   7.1338   7.1779   7.2874   7.4134
     7.5274   7.5695   7.7255   7.7698   7.8131   7.8556   7.9067   7.9589
     8.2915   8.3192   8.3287   8.3988   8.5470   8.5657   8.7105   8.7638
    12.0632  12.0866  12.2581  12.2768  12.3150  12.3449  12.4637  12.5928
    12.7050  12.7105  12.7730  12.8625  12.8793  13.0511  13.1190  13.4063
    13.5242  13.7674  13.8354

          k = 0.0000 0.8217-0.4708 (  7980 PWs)   bands (ev):

   -48.9523 -48.9250 -48.9235 -48.8820 -48.8582 -38.0703 -38.0616 -38.0399
   -25.2612 -25.2492 -25.2325 -25.2283 -25.2170 -25.2107 -25.2027 -25.1766
   -25.1639 -25.1327 -25.1245 -25.1065 -25.0965 -25.0873 -25.0698 -16.8302
   -16.7879 -16.6477 -16.6078 -16.5368 -16.4994 -16.3869 -16.3674 -16.3029
    -7.7161  -7.6753  -7.6151  -7.5886  -7.2944  -7.2281  -7.1569  -7.0834
    -7.0544  -7.0091  -6.8619  -6.7610  -6.5832  -6.4493  -6.3350  -6.2540
     4.5248   4.6126   4.7591   4.8549   4.9543   5.0325   5.0996   5.1402
     5.1997   5.2820   5.4796   5.5861   5.6338   5.6631   5.7215   5.7724
     5.9576   5.9824   6.1417   6.2182   6.3343   6.3522   6.4571   6.5479
     6.7409   6.7740   6.9616   7.0213   7.0751   7.1297   7.3117   7.3697
     7.5097   7.6356   7.6806   7.7119   7.8213   7.8510   7.9426   7.9915
     8.0991   8.2659   8.3083   8.3706   8.4733   8.5010   8.7202   8.7644
    12.0181  12.1306  12.1663  12.2135  12.4173  12.4670  12.4917  12.5814
    12.6202  12.7322  12.7586  12.8308  12.8765  12.9638  13.0377  13.4279
    13.5836  13.7076  13.8058

          k = 0.0000-0.8217 0.0000 (  7982 PWs)   bands (ev):

   -48.9535 -48.9258 -48.9251 -48.8833 -48.8585 -38.0753 -38.0643 -38.0372
   -25.2593 -25.2533 -25.2335 -25.2261 -25.2095 -25.1997 -25.1856 -25.1823
   -25.1685 -25.1492 -25.1299 -25.1064 -25.0993 -25.0867 -25.0659 -16.8216
   -16.7486 -16.6535 -16.6090 -16.5294 -16.5117 -16.3879 -16.3793 -16.3096
    -7.8656  -7.8109  -7.6709  -7.6577  -7.2898  -7.2555  -7.1700  -7.0267
    -6.9900  -6.9466  -6.9146  -6.7302  -6.5402  -6.3602  -6.2600  -6.1779
     4.4516   4.5471   4.6072   4.9237   4.9284   5.0716   5.1031   5.1465
     5.2210   5.3964   5.4278   5.4581   5.5097   5.6954   5.9225   6.0084
     6.0113   6.0850   6.1333   6.1734   6.2813   6.3621   6.4687   6.5555
     6.6340   6.6958   6.9156   6.9296   6.9571   7.1268   7.3662   7.4778
     7.5338   7.5785   7.6423   7.7183   7.7362   7.8522   7.9114   7.9768
     8.0478   8.0811   8.4268   8.4493   8.6716   8.6785   8.8236   8.8346
    12.0539  12.2425  12.2603  12.3023  12.3475  12.3592  12.3822  12.5816
    12.6049  12.7125  12.7279  12.7982  12.8539  12.9021  13.0690  13.4391
    13.4559  13.7659  14.0246

          k = 0.0000 0.0000-0.9416 (  7932 PWs)   bands (ev):

   -48.9525 -48.9250 -48.9246 -48.8819 -48.8583 -38.0643 -38.0613 -38.0448
   -25.2604 -25.2488 -25.2326 -25.2290 -25.2265 -25.2152 -25.1991 -25.1807
   -25.1484 -25.1326 -25.1235 -25.1175 -25.0878 -25.0834 -25.0744 -16.8350
   -16.8189 -16.6785 -16.5871 -16.5261 -16.4924 -16.3869 -16.3546 -16.2967
    -7.6935  -7.6130  -7.4568  -7.3822  -7.3735  -7.3022  -7.2668  -7.1567
    -6.9823  -6.9648  -6.7579  -6.7164  -6.6343  -6.5049  -6.4494  -6.3789
     4.3501   4.4836   4.7847   4.9214   4.9930   5.0253   5.0433   5.0627
     5.2050   5.2418   5.2788   5.3181   5.3517   5.4498   5.6819   5.7325
     6.1138   6.1978   6.2038   6.2092   6.2958   6.3505   6.4757   6.5361
     6.6818   6.8806   7.0101   7.1779   7.1934   7.2042   7.2206   7.2766
     7.6905   7.7444   7.7999   7.8521   7.8580   7.9128   7.9646   8.0029
     8.3944   8.4333   8.4428   8.5507   8.6082   8.6083   8.7357   8.7445
    12.0198  12.0227  12.2641  12.2830  12.3245  12.3692  12.5387  12.6175
    12.6734  12.6879  12.8086  12.8252  12.9042  12.9865  13.1025  13.3555
    13.4228  13.8254  14.0060

          k = 0.2500 0.0000 0.0000 (  7956 PWs)   bands (ev):

   -48.9536 -48.9259 -48.9249 -48.8840 -48.8579 -38.0751 -38.0651 -38.0365
   -25.2591 -25.2538 -25.2313 -25.2283 -25.2182 -25.1970 -25.1843 -25.1818
   -25.1683 -25.1430 -25.1239 -25.1149 -25.0999 -25.0831 -25.0683 -16.8236
   -16.7515 -16.6539 -16.6036 -16.5306 -16.5042 -16.3875 -16.3799 -16.3118
    -8.3341  -7.9087  -7.3798  -7.3464  -7.2419  -7.1417  -7.1137  -7.0723
    -7.0221  -6.9383  -6.8858  -6.8320  -6.5543  -6.3840  -6.2953  -6.1936
     4.1899   4.5952   4.6858   4.7772   4.8046   4.9358   4.9788   5.1795
     5.2036   5.3131   5.3508   5.3914   5.4837   5.5026   5.5495   5.8084
     5.8656   5.9568   6.0487   6.2177   6.3245   6.3778   6.4714   6.6772
     6.6921   6.7842   6.8740   7.2011   7.3729   7.4280   7.4765   7.5520
     7.5905   7.6385   7.6619   7.7310   7.8654   7.8969   8.1759   8.2716
     8.3413   8.3818   8.5679   8.6349   8.6729   8.7409   8.7448   8.8962
    12.0666  12.1112  12.1609  12.2560  12.2736  12.4184  12.4476  12.6142
    12.6417  12.6782  12.7029  12.7331  12.7722  12.8140  13.0027  13.6000
    13.6766  13.7447  13.8753

          k = 0.2500-0.4109 0.4708 (  7962 PWs)   bands (ev):

   -48.9528 -48.9250 -48.9245 -48.8826 -48.8582 -38.0702 -38.0628 -38.0399
   -25.2609 -25.2496 -25.2305 -25.2283 -25.2243 -25.2091 -25.1959 -25.1751
   -25.1641 -25.1331 -25.1269 -25.1111 -25.0939 -25.0856 -25.0702 -16.8301
   -16.7895 -16.6461 -16.6089 -16.5346 -16.4976 -16.3880 -16.3652 -16.3039
    -7.9914  -7.7385  -7.4619  -7.3814  -7.2983  -7.2283  -7.1653  -7.1082
    -7.0591  -6.9878  -6.8323  -6.7255  -6.5897  -6.4558  -6.3496  -6.2809
     4.5137   4.5421   4.7329   4.8512   4.9366   4.9911   5.0825   5.1464
     5.2016   5.2772   5.3257   5.4041   5.4840   5.5593   5.6435   5.7203
     5.8272   5.9940   6.0861   6.1178   6.3320   6.4900   6.5854   6.6930
     6.8268   6.8858   6.9949   7.0966   7.1863   7.2337   7.2928   7.4628
     7.5119   7.6222   7.6850   7.8128   7.8933   7.9583   8.0370   8.1081
     8.1425   8.2477   8.2934   8.4873   8.5450   8.6295   8.6656   8.7714
    12.0286  12.1257  12.2142  12.2612  12.3210  12.3825  12.5037  12.5799
    12.6311  12.7160  12.7602  12.8109  12.8819  12.9197  13.0567  13.4373
    13.5250  13.7692  13.8817

          k = 0.2500 0.8217-0.9416 (  7984 PWs)   bands (ev):

   -48.9509 -48.9241 -48.9220 -48.8808 -48.8579 -38.0636 -38.0595 -38.0440
   -25.2612 -25.2480 -25.2325 -25.2309 -25.2241 -25.2151 -25.2023 -25.1960
   -25.1465 -25.1270 -25.1159 -25.1112 -25.0938 -25.0848 -25.0751 -16.8323
   -16.8172 -16.6797 -16.5905 -16.5291 -16.4964 -16.3870 -16.3552 -16.2959
    -7.5206  -7.4999  -7.4640  -7.4059  -7.3982  -7.3187  -7.2277  -7.2172
    -7.0608  -6.9864  -6.8201  -6.7454  -6.7091  -6.5380  -6.3994  -6.3535
     4.6174   4.6630   4.7941   4.8481   4.8928   5.0545   5.1196   5.1238
     5.3331   5.3483   5.3993   5.4651   5.4974   5.5571   5.6444   5.6828
     6.0591   6.1596   6.2275   6.3302   6.3601   6.4229   6.4525   6.5734
     6.7668   6.8012   7.0435   7.0728   7.0849   7.1587   7.2974   7.3448
     7.3941   7.4943   7.6737   7.7239   7.7475   7.7948   7.8671   7.9402
     8.0630   8.1216   8.3460   8.3618   8.4538   8.4769   8.7019   8.7471
    12.1142  12.1321  12.1589  12.1932  12.3909  12.4321  12.5070  12.5842
    12.6860  12.6878  12.7660  12.8183  12.8650  13.0580  13.0799  13.5309
    13.5864  13.6379  13.7634

          k = 0.2500 0.4109 0.0000 (  7980 PWs)   bands (ev):

   -48.9536 -48.9257 -48.9252 -48.8837 -48.8582 -38.0750 -38.0649 -38.0368
   -25.2593 -25.2531 -25.2311 -25.2285 -25.2164 -25.1973 -25.1837 -25.1813
   -25.1693 -25.1443 -25.1314 -25.1074 -25.0997 -25.0854 -25.0671 -16.8226
   -16.7509 -16.6537 -16.6039 -16.5316 -16.5072 -16.3872 -16.3800 -16.3114
    -8.1883  -7.8499  -7.4887  -7.3868  -7.2989  -7.2718  -7.1569  -7.0578
    -7.0003  -6.9481  -6.8521  -6.7645  -6.5491  -6.3725  -6.2870  -6.1837
     4.3261   4.4976   4.7530   4.8385   4.9327   4.9734   5.0690   5.1419
     5.2352   5.2815   5.4023   5.4308   5.5437   5.5678   5.7142   5.7287
     5.8208   5.9182   6.0401   6.2462   6.3682   6.5087   6.5322   6.5978
     6.7625   6.8373   6.9120   7.0454   7.1214   7.2163   7.3797   7.4661
     7.5481   7.6432   7.6935   7.7855   7.8778   7.9255   8.0688   8.1200
     8.1707   8.2470   8.4430   8.5286   8.6753   8.7184   8.7311   8.8009
    12.0747  12.1411  12.1721  12.2363  12.3363  12.3889  12.4814  12.5607
    12.6388  12.6820  12.7438  12.7701  12.8008  12.8640  13.0464  13.5079
    13.6494  13.7026  13.8926

          k = 0.2500 0.0000 0.4708 (  7964 PWs)   bands (ev):

   -48.9531 -48.9254 -48.9250 -48.8830 -48.8582 -38.0704 -38.0634 -38.0401
   -25.2609 -25.2502 -25.2297 -25.2270 -25.2253 -25.2097 -25.1957 -25.1715
   -25.1642 -25.1322 -25.1272 -25.1167 -25.0924 -25.0842 -25.0708 -16.8309
   -16.7905 -16.6445 -16.6096 -16.5321 -16.4958 -16.3884 -16.3651 -16.3042
    -8.1147  -7.7842  -7.3786  -7.3709  -7.2407  -7.2036  -7.1446  -7.1303
    -7.0401  -6.9516  -6.8578  -6.7046  -6.6057  -6.4399  -6.3780  -6.2952
     4.3983   4.5567   4.6252   4.8926   4.9278   4.9667   5.0342   5.0834
     5.1444   5.1990   5.3195   5.3519   5.4615   5.4907   5.5742   5.6243
     5.9146   6.0066   6.0455   6.2206   6.3488   6.4664   6.5339   6.6457
     6.7863   6.9334   7.0680   7.1184   7.1393   7.2145   7.3529   7.5536
     7.6234   7.7681   7.7892   7.8244   7.9637   8.0486   8.0708   8.1303
     8.2312   8.3189   8.3824   8.5823   8.6353   8.6889   8.7266   8.7680
    12.0502  12.1226  12.1857  12.2736  12.2777  12.3836  12.5147  12.5849
    12.6282  12.6778  12.7223  12.7834  12.8455  12.9121  13.0477  13.4680
    13.5584  13.8214  13.9259

          k = 0.2500 1.2326-0.9416 (  7970 PWs)   bands (ev):

   -48.9517 -48.9245 -48.9233 -48.8814 -48.8581 -38.0639 -38.0605 -38.0445
   -25.2608 -25.2479 -25.2338 -25.2314 -25.2222 -25.2145 -25.2019 -25.1900
   -25.1469 -25.1285 -25.1189 -25.1157 -25.0904 -25.0845 -25.0746 -16.8330
   -16.8184 -16.6782 -16.5905 -16.5270 -16.4947 -16.3871 -16.3546 -16.2960
    -7.5892  -7.5565  -7.4932  -7.4710  -7.3374  -7.2931  -7.2365  -7.1638
    -7.0195  -6.9991  -6.7980  -6.7074  -6.6641  -6.5055  -6.4446  -6.3712
     4.5596   4.6317   4.6543   4.7979   4.9913   5.0617   5.0939   5.1349
     5.2109   5.2615   5.3270   5.3916   5.4078   5.4438   5.7372   5.7524
     6.0313   6.0824   6.1431   6.2073   6.4462   6.5287   6.5695   6.6814
     6.7424   6.8353   6.9950   7.0213   7.0818   7.1259   7.3385   7.4303
     7.5062   7.5450   7.5997   7.6340   7.8503   7.9164   8.0126   8.0282
     8.2295   8.2605   8.4273   8.4499   8.5025   8.5253   8.7113   8.7573
    12.0871  12.1116  12.2084  12.2623  12.3561  12.4083  12.4611  12.5939
    12.6502  12.6988  12.7877  12.8413  12.8917  13.0078  13.0756  13.4226
    13.5460  13.7200  13.8115

          k = 0.2500 0.8217-0.4708 (  7962 PWs)   bands (ev):

   -48.9523 -48.9248 -48.9237 -48.8820 -48.8582 -38.0700 -38.0622 -38.0396
   -25.2611 -25.2492 -25.2311 -25.2296 -25.2190 -25.2090 -25.2027 -25.1766
   -25.1621 -25.1317 -25.1284 -25.1062 -25.0958 -25.0871 -25.0697 -16.8286
   -16.7881 -16.6467 -16.6124 -16.5333 -16.5015 -16.3865 -16.3672 -16.3023
    -7.7184  -7.6849  -7.6136  -7.5712  -7.2797  -7.2405  -7.1517  -7.1210
    -7.0674  -6.9904  -6.8724  -6.7053  -6.5878  -6.4835  -6.3225  -6.2550
     4.5208   4.6635   4.7432   4.8169   4.9234   4.9748   5.1829   5.2134
     5.2552   5.3324   5.4223   5.4876   5.6078   5.6432   5.7367   5.8250
     5.9595   5.9704   6.0791   6.1495   6.1591   6.4181   6.5280   6.6372
     6.7471   6.7659   6.9109   7.0331   7.1151   7.2431   7.3257   7.4649
     7.5411   7.5806   7.6079   7.7372   7.8138   7.8966   7.9968   8.0053
     8.0334   8.1717   8.2363   8.4392   8.4993   8.5706   8.5992   8.7460
    12.0427  12.1118  12.2116  12.2737  12.3434  12.3586  12.5157  12.5722
    12.6683  12.7103  12.7809  12.8548  12.9161  12.9433  13.0189  13.3693
    13.6518  13.6860  13.8510

          k = 0.2500-0.8217 0.0000 (  7968 PWs)   bands (ev):

   -48.9535 -48.9257 -48.9252 -48.8832 -48.8585 -38.0750 -38.0645 -38.0371
   -25.2594 -25.2525 -25.2329 -25.2259 -25.2149 -25.1976 -25.1829 -25.1810
   -25.1705 -25.1476 -25.1334 -25.1033 -25.0994 -25.0875 -25.0662 -16.8215
   -16.7504 -16.6536 -16.6042 -16.5326 -16.5100 -16.3869 -16.3800 -16.3111
    -7.8344  -7.7995  -7.7016  -7.6723  -7.2861  -7.2575  -7.1843  -7.0674
    -6.9908  -6.9512  -6.8601  -6.7027  -6.5455  -6.3602  -6.2791  -6.1732
     4.4771   4.5792   4.6132   4.8842   4.9609   4.9960   5.1224   5.2111
     5.2977   5.3579   5.4339   5.4552   5.5377   5.5948   5.7379   5.8954
     5.9807   6.0361   6.2166   6.2657   6.3302   6.3724   6.3891   6.4828
     6.6516   6.7745   6.9390   7.0421   7.1526   7.1715   7.2744   7.3364
     7.4501   7.6178   7.6711   7.7702   7.8066   7.8888   7.9207   8.0224
     8.0513   8.2068   8.3880   8.4513   8.5524   8.6906   8.7301   8.7444
    12.0866  12.1413  12.2231  12.2704  12.3308  12.3766  12.4904  12.5294
    12.6806  12.7146  12.7187  12.8134  12.8479  12.9058  13.0714  13.4192
    13.5799  13.7899  13.8254

          k = 0.2500 0.0000-0.9416 (  7932 PWs)   bands (ev):

   -48.9524 -48.9249 -48.9246 -48.8819 -48.8584 -38.0641 -38.0616 -38.0449
   -25.2605 -25.2480 -25.2355 -25.2304 -25.2204 -25.2140 -25.2022 -25.1834
   -25.1474 -25.1306 -25.1241 -25.1167 -25.0884 -25.0840 -25.0742 -16.8336
   -16.8196 -16.6767 -16.5904 -16.5249 -16.4929 -16.3872 -16.3540 -16.2962
    -7.6729  -7.6023  -7.5181  -7.4691  -7.3038  -7.2628  -7.2228  -7.1407
    -7.0202  -6.9731  -6.7913  -6.6795  -6.6573  -6.4951  -6.4534  -6.3713
     4.3930   4.5203   4.6842   4.8738   4.9861   5.0339   5.0951   5.1154
     5.1728   5.2258   5.3142   5.3535   5.3670   5.4397   5.5288   5.5544
     6.1436   6.2655   6.3437   6.3720   6.4065   6.4609   6.4954   6.5508
     6.6650   6.8284   6.8861   6.9795   7.0433   7.1181   7.4060   7.4347
     7.4865   7.5743   7.7336   7.7712   8.0113   8.0615   8.0898   8.1097
     8.3102   8.3727   8.4964   8.5156   8.5684   8.6293   8.7444   8.7614
    12.0552  12.0673  12.2349  12.3039  12.3307  12.3922  12.4743  12.5888
    12.6343  12.6924  12.7916  12.8562  12.9010  12.9808  13.0788  13.4038
    13.4983  13.8425  13.8933

          k =-0.5000 0.0000 0.0000 (  7924 PWs)   bands (ev):

   -48.9536 -48.9259 -48.9249 -48.8841 -48.8579 -38.0752 -38.0648 -38.0365
   -25.2592 -25.2523 -25.2296 -25.2278 -25.2252 -25.1948 -25.1813 -25.1758
   -25.1749 -25.1476 -25.1218 -25.1119 -25.0999 -25.0847 -25.0683 -16.8234
   -16.7534 -16.6542 -16.5983 -16.5333 -16.5032 -16.3864 -16.3808 -16.3132
    -8.1755  -8.1494  -7.3548  -7.2867  -7.2028  -7.1462  -7.1268  -7.0808
    -7.0224  -6.9469  -6.8729  -6.8268  -6.5533  -6.3716  -6.3250  -6.2029
     4.3210   4.4970   4.5778   4.7318   4.8489   4.8946   4.9738   5.0569
     5.3067   5.3099   5.4252   5.4556   5.4750   5.5061   5.8115   5.9324
     5.9827   6.0257   6.0718   6.0836   6.1769   6.1775   6.3091   6.4028
     6.6869   6.7254   6.9170   7.0083   7.4707   7.5231   7.5841   7.6136
     7.6998   7.7201   7.8514   7.8889   8.0872   8.1023   8.1403   8.1470
     8.1772   8.2735   8.4133   8.4646   8.6387   8.7129   8.8119   8.8553
    12.1380  12.1437  12.1621  12.1916  12.2722  12.2979  12.4354  12.6414
    12.6500  12.7124  12.7223  12.7405  12.8290  12.8385  12.9967  13.6259
    13.6925  13.7847  13.7978

          k =-0.5000-0.4109 0.4708 (  7980 PWs)   bands (ev):

   -48.9528 -48.9249 -48.9247 -48.8826 -48.8582 -38.0700 -38.0632 -38.0398
   -25.2607 -25.2491 -25.2327 -25.2291 -25.2234 -25.2083 -25.1942 -25.1765
   -25.1617 -25.1362 -25.1269 -25.1108 -25.0936 -25.0853 -25.0701 -16.8283
   -16.7898 -16.6453 -16.6136 -16.5314 -16.4993 -16.3878 -16.3650 -16.3034
    -7.9053  -7.8701  -7.4344  -7.3855  -7.2722  -7.2256  -7.1713  -7.1063
    -7.0345  -6.9969  -6.8442  -6.7173  -6.6001  -6.4639  -6.3520  -6.2742
     4.5032   4.5506   4.7575   4.8194   4.9012   4.9802   5.0833   5.1432
     5.2635   5.3184   5.3880   5.4070   5.4543   5.5121   5.6721   5.7064
     5.8693   5.9284   6.0617   6.1030   6.4355   6.4423   6.5076   6.6145
     6.7912   6.8242   6.9660   7.0903   7.2237   7.2565   7.4083   7.4739
     7.6539   7.6884   7.7826   7.8023   7.8829   7.9189   8.0182   8.0820
     8.1268   8.1506   8.3625   8.4102   8.5848   8.6245   8.6555   8.7044
    12.0997  12.1125  12.2019  12.2286  12.3600  12.4011  12.4386  12.5400
    12.6364  12.6930  12.7610  12.8363  12.9059  12.9468  13.0300  13.4054
    13.5043  13.7639  13.9679

          k =-0.5000 0.8217-0.9416 (  7968 PWs)   bands (ev):

   -48.9510 -48.9235 -48.9227 -48.8809 -48.8580 -38.0625 -38.0606 -38.0441
   -25.2613 -25.2483 -25.2323 -25.2312 -25.2167 -25.2162 -25.2070 -25.1994
   -25.1450 -25.1231 -25.1150 -25.1145 -25.0941 -25.0852 -25.0750 -16.8314
   -16.8178 -16.6781 -16.5933 -16.5275 -16.4976 -16.3873 -16.3547 -16.2954
    -7.5263  -7.4916  -7.4749  -7.4154  -7.3483  -7.3089  -7.2842  -7.2256
    -7.0533  -6.9774  -6.8229  -6.7488  -6.6805  -6.5491  -6.4001  -6.3580
     4.6718   4.6779   4.7200   4.8081   4.8977   5.0859   5.1154   5.1237
     5.3708   5.4121   5.4190   5.4749   5.5019   5.5356   5.5775   5.5917
     6.0751   6.1373   6.2012   6.2454   6.4036   6.5081   6.5514   6.6008
     6.8827   6.9131   6.9174   6.9422   7.0804   7.1996   7.2330   7.2660
     7.4877   7.5112   7.5868   7.6032   7.7691   7.9611   7.9682   8.0045
     8.0715   8.1081   8.1364   8.1370   8.6362   8.6387   8.6668   8.6801
    12.1063  12.1240  12.1301  12.1673  12.4217  12.4873  12.5205  12.5705
    12.6789  12.6791  12.7805  12.8890  12.9118  12.9784  13.0081  13.5038
    13.5895  13.6454  13.8365

          k =-0.5000 0.4109 0.0000 (  7976 PWs)   bands (ev):

   -48.9537 -48.9258 -48.9252 -48.8837 -48.8582 -38.0750 -38.0649 -38.0368
   -25.2594 -25.2520 -25.2306 -25.2272 -25.2224 -25.1957 -25.1811 -25.1760
   -25.1749 -25.1464 -25.1313 -25.1044 -25.0998 -25.0867 -25.0673 -16.8224
   -16.7528 -16.6540 -16.5988 -16.5346 -16.5059 -16.3860 -16.3810 -16.3129
    -8.0502  -8.0467  -7.4355  -7.3836  -7.3099  -7.2741  -7.1156  -7.0993
    -6.9791  -6.9632  -6.8283  -6.7629  -6.5427  -6.3634  -6.3171  -6.1844
     4.3737   4.4539   4.7899   4.8269   4.9752   5.0086   5.0450   5.1160
     5.2490   5.2585   5.3625   5.4260   5.5280   5.5735   5.6328   5.6583
     5.8911   5.9437   6.1129   6.1646   6.3872   6.4684   6.5921   6.6373
     6.7348   6.7814   6.9711   6.9960   7.1269   7.1545   7.3938   7.5120
     7.6044   7.6088   7.7488   7.7546   7.9458   8.0362   8.0575   8.0903
     8.2731   8.2761   8.5126   8.5384   8.5794   8.6080   8.6855   8.7064
    12.0906  12.1011  12.2214  12.2702  12.2768  12.2773  12.4474  12.5931
    12.6658  12.7187  12.7422  12.8109  12.8503  12.8853  13.0205  13.5626
    13.5885  13.7573  13.8662

          k =-0.5000 0.0000 0.4708 (  7950 PWs)   bands (ev):

   -48.9531 -48.9254 -48.9249 -48.8830 -48.8582 -38.0705 -38.0636 -38.0400
   -25.2605 -25.2492 -25.2346 -25.2285 -25.2225 -25.2079 -25.1939 -25.1724
   -25.1625 -25.1379 -25.1243 -25.1168 -25.0923 -25.0839 -25.0706 -16.8290
   -16.7907 -16.6438 -16.6146 -16.5292 -16.4970 -16.3882 -16.3647 -16.3036
    -7.9890  -7.9747  -7.3591  -7.2841  -7.2791  -7.2028  -7.1786  -7.0993
    -7.0199  -6.9626  -6.8140  -6.7442  -6.6100  -6.4378  -6.3918  -6.2937
     4.4465   4.5676   4.6182   4.7356   4.9759   5.0136   5.0303   5.0901
     5.1445   5.1697   5.2805   5.3773   5.4975   5.5439   5.6001   5.7477
     5.8171   5.9065   6.1480   6.1761   6.3115   6.3293   6.5242   6.6030
     6.8148   6.8929   7.0508   7.1976   7.2361   7.2822   7.4209   7.4704
     7.6229   7.6913   7.8349   7.9087   8.0246   8.0493   8.1353   8.1942
     8.2644   8.2979   8.3066   8.3259   8.6539   8.6899   8.7392   8.7863
    12.0958  12.1162  12.2305  12.2551  12.2904  12.3409  12.4838  12.5519
    12.6034  12.6613  12.7586  12.7984  12.8628  12.9384  13.0399  13.4981
    13.5404  13.8417  13.8919

          k =-0.5000 1.2326-0.9416 (  7960 PWs)   bands (ev):

   -48.9518 -48.9241 -48.9237 -48.8814 -48.8582 -38.0630 -38.0614 -38.0446
   -25.2609 -25.2477 -25.2354 -25.2312 -25.2158 -25.2139 -25.2067 -25.1931
   -25.1457 -25.1241 -25.1218 -25.1152 -25.0910 -25.0850 -25.0745 -16.8319
   -16.8190 -16.6765 -16.5935 -16.5257 -16.4956 -16.3874 -16.3541 -16.2955
    -7.5753  -7.5611  -7.5168  -7.5062  -7.2988  -7.2518  -7.2162  -7.1758
    -7.0251  -7.0198  -6.8223  -6.7206  -6.6499  -6.5089  -6.4418  -6.3597
     4.5520   4.6019   4.6330   4.7536   5.0458   5.0913   5.0938   5.1708
     5.2740   5.3211   5.3434   5.4105   5.5096   5.5447   5.5482   5.5663
     5.9570   6.0086   6.0791   6.1162   6.6226   6.6232   6.6717   6.7391
     6.8534   6.8988   6.9542   6.9666   7.1494   7.1512   7.1905   7.2429
     7.4259   7.5544   7.5618   7.6134   7.9185   8.0211   8.0789   8.0795
     8.2378   8.2481   8.2995   8.3156   8.6198   8.6552   8.6704   8.6849
    12.1288  12.1695  12.1891  12.1898  12.4196  12.4422  12.4750  12.5619
    12.6430  12.6840  12.7450  12.8663  12.9077  12.9668  13.0296  13.4375
    13.6131  13.6433  13.7638

          k =-0.5000 0.8217-0.4708 (  7964 PWs)   bands (ev):

   -48.9523 -48.9244 -48.9242 -48.8820 -48.8582 -38.0696 -38.0628 -38.0395
   -25.2609 -25.2490 -25.2315 -25.2282 -25.2247 -25.2087 -25.1949 -25.1804
   -25.1609 -25.1341 -25.1285 -25.1055 -25.0956 -25.0869 -25.0697 -16.8277
   -16.7888 -16.6468 -16.6127 -16.5336 -16.5014 -16.3873 -16.3652 -16.3031
    -7.7086  -7.6958  -7.6058  -7.5751  -7.2648  -7.2338  -7.1903  -7.1192
    -7.0719  -7.0083  -6.8294  -6.6745  -6.6216  -6.4968  -6.3164  -6.2526
     4.6019   4.6773   4.6863   4.7996   4.8860   4.9902   5.1492   5.2256
     5.2716   5.3405   5.4917   5.5584   5.5900   5.6354   5.6560   5.7159
     5.9177   5.9786   6.0695   6.1474   6.2521   6.2980   6.6090   6.6456
     6.6582   6.8040   6.9411   7.0307   7.1762   7.2847   7.3565   7.4305
     7.6016   7.6629   7.7023   7.7570   7.7946   7.8408   7.9433   7.9653
     8.0080   8.0481   8.4158   8.4410   8.4833   8.5143   8.6199   8.6394
    12.0819  12.0957  12.2050  12.2409  12.3406  12.4015  12.4796  12.5711
    12.6929  12.7264  12.7721  12.8482  12.9019  12.9312  13.0562  13.3826
    13.5357  13.7015  13.8689

          k =-0.5000-0.8217 0.0000 (  7960 PWs)   bands (ev):

   -48.9535 -48.9256 -48.9253 -48.8832 -48.8584 -38.0746 -38.0649 -38.0369
   -25.2595 -25.2515 -25.2323 -25.2244 -25.2205 -25.1968 -25.1810 -25.1762
   -25.1751 -25.1451 -25.1374 -25.1002 -25.0995 -25.0886 -25.0665 -16.8213
   -16.7521 -16.6538 -16.5992 -16.5358 -16.5085 -16.3856 -16.3812 -16.3125
    -7.7940  -7.7540  -7.7401  -7.7245  -7.2764  -7.2686  -7.1684  -7.1284
    -6.9694  -6.9685  -6.7970  -6.7107  -6.5334  -6.3561  -6.3073  -6.1679
     4.5057   4.5968   4.6790   4.7406   5.0173   5.0867   5.1245   5.2072
     5.2852   5.3223   5.4328   5.4805   5.5076   5.5939   5.6837   5.7270
     5.9790   6.0051   6.1720   6.2046   6.3764   6.3832   6.4411   6.5045
     6.7533   6.8464   6.8722   6.9964   7.1782   7.2820   7.3079   7.3686
     7.4708   7.5381   7.7185   7.7855   7.8715   7.8734   7.8866   7.9471
     8.3099   8.3249   8.3703   8.4061   8.5419   8.5739   8.6139   8.6156
    12.0805  12.1329  12.2059  12.2712  12.2739  12.3746  12.4378  12.6567
    12.6891  12.7257  12.7275  12.8185  12.8472  12.8803  13.0815  13.5488
    13.5656  13.6758  13.8236

          k =-0.5000 0.0000-0.9416 (  7932 PWs)   bands (ev):

   -48.9524 -48.9248 -48.9246 -48.8818 -48.8584 -38.0636 -38.0622 -38.0450
   -25.2606 -25.2470 -25.2381 -25.2301 -25.2149 -25.2128 -25.2064 -25.1863
   -25.1465 -25.1283 -25.1251 -25.1159 -25.0891 -25.0846 -25.0740 -16.8324
   -16.8203 -16.6750 -16.5936 -16.5238 -16.4935 -16.3875 -16.3535 -16.2956
    -7.6331  -7.5909  -7.5593  -7.5416  -7.2572  -7.2427  -7.1809  -7.1269
    -7.0535  -6.9930  -6.8046  -6.6906  -6.6522  -6.4852  -6.4568  -6.3653
     4.4990   4.5353   4.5808   4.7674   5.0568   5.0573   5.0933   5.1674
     5.1849   5.2792   5.3190   5.3459   5.3770   5.3788   5.3910   5.4412
     6.2347   6.2827   6.3955   6.4101   6.4877   6.5589   6.6053   6.6209
     6.7831   6.8198   6.9288   6.9426   6.9884   6.9953   7.0221   7.0843
     7.5795   7.7600   7.7743   7.7883   8.0822   8.0933   8.1322   8.1584
     8.3206   8.3640   8.3831   8.3990   8.6308   8.7069   8.7386   8.7426
    12.1454  12.1662  12.1976  12.2004  12.3670  12.3929  12.4515  12.5244
    12.6237  12.6898  12.7814  12.8629  12.9003  12.9936  13.0517  13.4972
    13.6504  13.6736  13.7604

          k =-0.2500 0.4109 0.4708 (  7962 PWs)   bands (ev):

   -48.9527 -48.9250 -48.9245 -48.8826 -48.8582 -38.0702 -38.0628 -38.0399
   -25.2610 -25.2490 -25.2337 -25.2290 -25.2187 -25.2075 -25.2018 -25.1735
   -25.1626 -25.1348 -25.1260 -25.1110 -25.0942 -25.0855 -25.0701 -16.8292
   -16.7890 -16.6454 -16.6134 -16.5312 -16.4994 -16.3869 -16.3669 -16.3025
    -7.9905  -7.7425  -7.4866  -7.3542  -7.2841  -7.2508  -7.1666  -7.1049
    -7.0291  -6.9671  -6.8526  -6.7593  -6.5886  -6.4512  -6.3636  -6.2618
     4.4934   4.5926   4.7576   4.7865   4.8928   4.9824   5.0947   5.1414
     5.2300   5.2774   5.3710   5.4054   5.4636   5.5628   5.6227   5.7272
     5.8621   6.0265   6.0866   6.1359   6.2575   6.4996   6.5683   6.7016
     6.8117   6.8804   7.0137   7.0892   7.1814   7.2367   7.2972   7.4108
     7.5016   7.6512   7.6981   7.8317   7.9085   7.9649   8.0710   8.0843
     8.1456   8.2253   8.2754   8.4907   8.5607   8.6376   8.6721   8.7488
    12.0424  12.1392  12.2150  12.2637  12.2955  12.4011  12.5085  12.5679
    12.6215  12.6615  12.7589  12.8012  12.8976  12.9384  13.0201  13.4537
    13.6178  13.7536  13.8918

          k =-0.2500 0.0000 0.4708 (  7964 PWs)   bands (ev):

   -48.9531 -48.9254 -48.9250 -48.8830 -48.8582 -38.0704 -38.0634 -38.0401
   -25.2610 -25.2488 -25.2360 -25.2280 -25.2181 -25.2057 -25.2022 -25.1699
   -25.1634 -25.1369 -25.1234 -25.1166 -25.0930 -25.0842 -25.0706 -16.8299
   -16.7899 -16.6441 -16.6145 -16.5290 -16.4971 -16.3874 -16.3666 -16.3027
    -8.1191  -7.7814  -7.3932  -7.3359  -7.2563  -7.2005  -7.1837  -7.1151
    -6.9774  -6.9634  -6.8613  -6.7504  -6.5963  -6.4278  -6.4075  -6.2708
     4.3608   4.6380   4.6905   4.8573   4.8842   4.9944   5.0483   5.0746
     5.1240   5.1616   5.2532   5.3337   5.4031   5.4972   5.5638   5.6742
     5.9426   6.0184   6.0819   6.2272   6.4110   6.4655   6.5458   6.6477
     6.8289   6.9568   7.0078   7.0590   7.1184   7.2371   7.3479   7.5475
     7.5970   7.7405   7.7730   7.8432   7.9810   8.0542   8.0906   8.1266
     8.2423   8.3007   8.3815   8.6058   8.6516   8.6826   8.7220   8.7564
    12.0470  12.1362  12.1925  12.2783  12.3422  12.3972  12.4117  12.5208
    12.6374  12.6686  12.7514  12.7826  12.8554  12.8882  13.0341  13.5160
    13.6681  13.8252  13.8625

          k =-0.2500-0.8217-0.4708 (  7962 PWs)   bands (ev):

   -48.9523 -48.9248 -48.9237 -48.8820 -48.8582 -38.0700 -38.0622 -38.0396
   -25.2610 -25.2489 -25.2323 -25.2282 -25.2229 -25.2087 -25.1961 -25.1796
   -25.1632 -25.1341 -25.1256 -25.1057 -25.0963 -25.0870 -25.0698 -16.8293
   -16.7885 -16.6476 -16.6082 -16.5370 -16.4993 -16.3878 -16.3654 -16.3037
    -7.7167  -7.6606  -7.6357  -7.5790  -7.2909  -7.2062  -7.1914  -7.0820
    -7.0602  -7.0351  -6.8120  -6.7536  -6.5938  -6.4738  -6.3212  -6.2535
     4.6010   4.6156   4.7575   4.7889   4.8948   5.0329   5.0892   5.1871
     5.2422   5.3436   5.4852   5.5265   5.5780   5.6112   5.7338   5.9026
     5.9173   5.9828   6.0836   6.1019   6.1599   6.4989   6.5576   6.6113
     6.6745   6.7925   6.9113   7.0515   7.1426   7.1756   7.3368   7.4214
     7.5050   7.5648   7.6688   7.7196   7.8432   7.9102   8.0073   8.0416
     8.0996   8.1458   8.2348   8.4123   8.4474   8.5396   8.6149   8.7665
    12.0248  12.0903  12.2186  12.3036  12.3253  12.4223  12.4864  12.5736
    12.6810  12.7044  12.8013  12.8478  12.8708  12.9262  13.0671  13.4121
    13.5692  13.6860  13.7444

     the Fermi energy is    10.7920 ev

!    total energy              =   -2477.82142386 Ry
     total all-electron energy =    -32510.734476 Ry
     estimated scf accuracy    <       0.00000090 Ry
     smearing contrib. (-TS)   =      -0.00000000 Ry
     internal energy E=F+TS    =   -2477.82142386 Ry

     The total energy is F=E-TS. E is the sum of the following terms:
     one-electron contribution =    -404.97709688 Ry
     hartree contribution      =     308.41272953 Ry
     xc contribution           =    -263.15263493 Ry
     ewald contribution        =   -1037.26558368 Ry
     Hubbard energy            =       1.97711073 Ry
     one-center paw contrib.   =   -1082.81594862 Ry

     convergence has been achieved in  20 iterations

     Forces acting on atoms (cartesian axes, Ry/au):

     atom    1 type  1   force =    -0.00455939    0.03402587   -0.00609019
     atom    2 type  2   force =    -0.00325915    0.00041115    0.00859007
     atom    3 type  3   force =    -0.04398192    0.09133307   -0.01984834
     atom    4 type  3   force =     0.01704305    0.03888077    0.01994026
     atom    5 type  3   force =     0.04416731   -0.09201804   -0.02110869
     atom    6 type  3   force =    -0.01892256   -0.04149115    0.02021273
     atom    7 type  1   force =     0.00000000   -0.03642176    0.00000000
     atom    8 type  2   force =     0.00000000    0.00523998    0.00000000
     atom    9 type  3   force =    -0.04416731   -0.09201804    0.02110869
     atom   10 type  3   force =     0.01892256   -0.04149115   -0.02021273
     atom   11 type  3   force =     0.04398192    0.09133307    0.01984834
     atom   12 type  3   force =    -0.01704305    0.03888077   -0.01994026
     atom   13 type  1   force =     0.00455939    0.03402587    0.00609019
     atom   14 type  2   force =     0.00325915    0.00041115   -0.00859007
     atom   15 type  3   force =     0.04488456    0.01498419   -0.07863042
     atom   16 type  3   force =     0.01685759    0.04237644    0.01831776
     atom   17 type  3   force =     0.09591225   -0.07224159    0.06186548
     atom   18 type  3   force =     0.00155133   -0.00306264    0.00248266
     atom   19 type  2   force =     0.00000000   -0.00498345    0.00000000
     atom   20 type  2   force =     0.00000000    0.00976910    0.00000000
     atom   21 type  3   force =    -0.09591225   -0.07224159   -0.06186548
     atom   22 type  3   force =    -0.00155133   -0.00306264   -0.00248266
     atom   23 type  3   force =    -0.04488456    0.01498419    0.07863042
     atom   24 type  3   force =    -0.01685759    0.04237644   -0.01831776
     The non-local contrib.  to forces
     atom    1 type  1   force =    -0.00204319    0.05650344   -0.00176705
     atom    2 type  2   force =    -0.00009321   -0.00864206    0.00182969
     atom    3 type  3   force =    -0.15104902   -0.03863755    0.00128724
     atom    4 type  3   force =    -0.07015283    0.20522482    0.06578316
     atom    5 type  3   force =     0.15828628    0.03891121   -0.00334147
     atom    6 type  3   force =     0.06485789   -0.21458870    0.06811724
     atom    7 type  1   force =     0.00000000   -0.06067574    0.00000000
     atom    8 type  2   force =     0.00000000    0.00986253    0.00000000
     atom    9 type  3   force =    -0.15828628    0.03891121    0.00334147
     atom   10 type  3   force =    -0.06485789   -0.21458870   -0.06811724
     atom   11 type  3   force =     0.15104902   -0.03863755   -0.00128724
     atom   12 type  3   force =     0.07015283    0.20522482   -0.06578316
     atom   13 type  1   force =     0.00204319    0.05650344    0.00176705
     atom   14 type  2   force =     0.00009321   -0.00864206   -0.00182969
     atom   15 type  3   force =    -0.04713136   -0.12533793   -0.08662717
     atom   16 type  3   force =    -0.07942609    0.22545856    0.05282193
     atom   17 type  3   force =     0.22034571    0.07546857    0.10763065
     atom   18 type  3   force =     0.07855110   -0.16339393    0.04202532
     atom   19 type  2   force =     0.00000000   -0.00541920    0.00000000
     atom   20 type  2   force =     0.00000000    0.00200523    0.00000000
     atom   21 type  3   force =    -0.22034571    0.07546857   -0.10763065
     atom   22 type  3   force =    -0.07855110   -0.16339393   -0.04202532
     atom   23 type  3   force =     0.04713136   -0.12533793    0.08662717
     atom   24 type  3   force =     0.07942609    0.22545856   -0.05282193
     The ionic contribution  to forces
     atom    1 type  1   force =    -0.00000000   -1.46767640    0.00000000
     atom    2 type  2   force =     0.00000000    1.46767640    0.00000000
     atom    3 type  3   force =     1.54958613    1.30606141   -0.27461127
     atom    4 type  3   force =     1.54958613   -1.30606141   -0.27461127
     atom    5 type  3   force =    -1.54958613   -1.30606141   -0.27461127
     atom    6 type  3   force =    -1.54958613    1.30606141   -0.27461127
     atom    7 type  1   force =    -0.00000000    1.46767640    0.00000000
     atom    8 type  2   force =     0.00000000   -1.46767640   -0.00000000
     atom    9 type  3   force =     1.54958613   -1.30606141    0.27461127
     atom   10 type  3   force =     1.54958613    1.30606141    0.27461127
     atom   11 type  3   force =    -1.54958613    1.30606141    0.27461127
     atom   12 type  3   force =    -1.54958613   -1.30606141    0.27461127
     atom   13 type  1   force =     0.00000000   -1.46767640    0.00000000
     atom   14 type  2   force =     0.00000000    1.46767640    0.00000000
     atom   15 type  3   force =     1.54958613    1.30606141   -0.27461127
     atom   16 type  3   force =     1.54958613   -1.30606141   -0.27461127
     atom   17 type  3   force =    -1.54958613   -1.30606141   -0.27461127
     atom   18 type  3   force =    -1.54958613    1.30606141   -0.27461127
     atom   19 type  2   force =     0.00000000    1.46767640    0.00000000
     atom   20 type  2   force =     0.00000000   -1.46767640   -0.00000000
     atom   21 type  3   force =     1.54958613   -1.30606141    0.27461127
     atom   22 type  3   force =     1.54958613    1.30606141    0.27461127
     atom   23 type  3   force =    -1.54958613    1.30606141    0.27461127
     atom   24 type  3   force =    -1.54958613   -1.30606141    0.27461127
     The local contribution  to forces
     atom    1 type  1   force =    -0.00208518    1.44195981   -0.00489379
     atom    2 type  2   force =    -0.00353266   -1.44879962    0.00769322
     atom    3 type  3   force =    -1.44293897   -1.17048962    0.25292852
     atom    4 type  3   force =    -1.46282657    1.13406333    0.22825438
     atom    5 type  3   force =     1.43612547    1.16970723    0.25618010
     atom    6 type  3   force =     1.46666855   -1.12681019    0.22633274
     atom    7 type  1   force =     0.00000000   -1.43984036    0.00000000
     atom    8 type  2   force =     0.00000000    1.45438209    0.00000000
     atom    9 type  3   force =    -1.43612547    1.16970723   -0.25618010
     atom   10 type  3   force =    -1.46666855   -1.12681019   -0.22633274
     atom   11 type  3   force =     1.44293897   -1.17048962   -0.25292852
     atom   12 type  3   force =     1.46282657    1.13406333   -0.22825438
     atom   13 type  1   force =     0.00208518    1.44195981    0.00489379
     atom   14 type  2   force =     0.00353266   -1.44879962   -0.00769322
     atom   15 type  3   force =    -1.45833136   -1.15982689    0.28195218
     atom   16 type  3   force =    -1.45411478    1.11723815    0.23936021
     atom   17 type  3   force =     1.42543512    1.15341199    0.22816574
     atom   18 type  3   force =     1.47293619   -1.13943142    0.23460082
     atom   19 type  2   force =     0.00000000   -1.45666866    0.00000000
     atom   20 type  2   force =     0.00000000    1.46568883    0.00000000
     atom   21 type  3   force =    -1.42543512    1.15341199   -0.22816574
     atom   22 type  3   force =    -1.47293619   -1.13943142   -0.23460082
     atom   23 type  3   force =     1.45833136   -1.15982689   -0.28195218
     atom   24 type  3   force =     1.45411478    1.11723815   -0.23936021
     The core correction contribution to forces
     atom    1 type  1   force =     0.00009420   -0.00109504    0.00032283
     atom    2 type  2   force =     0.00014872   -0.00271936   -0.00046646
     atom    3 type  3   force =     0.00190167   -0.00165762    0.00039436
     atom    4 type  3   force =     0.00050055   -0.00149427   -0.00081817
     atom    5 type  3   force =    -0.00195078    0.00166337    0.00042300
     atom    6 type  3   force =    -0.00044113    0.00158522   -0.00085797
     atom    7 type  1   force =     0.00000017    0.00126625   -0.00000122
     atom    8 type  2   force =     0.00000248    0.00240956    0.00002134
     atom    9 type  3   force =     0.00195109    0.00166271   -0.00042234
     atom   10 type  3   force =     0.00044199    0.00158524    0.00085927
     atom   11 type  3   force =    -0.00190130   -0.00165790   -0.00039513
     atom   12 type  3   force =    -0.00049977   -0.00149431    0.00081774
     atom   13 type  1   force =    -0.00009369   -0.00109500   -0.00032012
     atom   14 type  2   force =    -0.00014635   -0.00271906    0.00042458
     atom   15 type  3   force =    -0.00000694   -0.00003278    0.00185524
     atom   16 type  3   force =     0.00058314   -0.00169204   -0.00071201
     atom   17 type  3   force =    -0.00315610    0.00109627   -0.00155053
     atom   18 type  3   force =    -0.00087041    0.00057122   -0.00032051
     atom   19 type  2   force =     0.00000289   -0.00299793   -0.00002634
     atom   20 type  2   force =    -0.00000128    0.00298776    0.00002994
     atom   21 type  3   force =     0.00315662    0.00109583    0.00155080
     atom   22 type  3   force =     0.00087132    0.00057099    0.00032067
     atom   23 type  3   force =     0.00000614   -0.00003386   -0.00185576
     atom   24 type  3   force =    -0.00058268   -0.00169208    0.00071152
     The Hubbard contrib.    to forces
     atom    1 type  1   force =    -0.00045186    0.00444544    0.00019216
     atom    2 type  2   force =     0.00015828   -0.00673912   -0.00045762
     atom    3 type  3   force =    -0.00148134   -0.00348292    0.00009957
     atom    4 type  3   force =     0.00025000    0.00782670    0.00129775
     atom    5 type  3   force =     0.00147927    0.00341071    0.00006719
     atom    6 type  3   force =    -0.00036739   -0.00792193    0.00151965
     atom    7 type  1   force =     0.00000000   -0.00472257    0.00000000
     atom    8 type  2   force =     0.00000000    0.00627549    0.00000000
     atom    9 type  3   force =    -0.00147927    0.00341071   -0.00006719
     atom   10 type  3   force =     0.00036739   -0.00792193   -0.00151965
     atom   11 type  3   force =     0.00148134   -0.00348292   -0.00009957
     atom   12 type  3   force =    -0.00025000    0.00782670   -0.00129775
     atom   13 type  1   force =     0.00045186    0.00444544   -0.00019216
     atom   14 type  2   force =    -0.00015828   -0.00673912    0.00045762
     atom   15 type  3   force =     0.00095737   -0.00565101   -0.00147505
     atom   16 type  3   force =     0.00027852    0.00781693    0.00166554
     atom   17 type  3   force =     0.00309390    0.00371550    0.00243176
     atom   18 type  3   force =     0.00057831   -0.00676864    0.00065582
     atom   19 type  2   force =     0.00000000   -0.00756380    0.00000000
     atom   20 type  2   force =     0.00000000    0.00706531    0.00000000
     atom   21 type  3   force =    -0.00309390    0.00371550   -0.00243176
     atom   22 type  3   force =    -0.00057831   -0.00676864   -0.00065582
     atom   23 type  3   force =    -0.00095737   -0.00565101    0.00147505
     atom   24 type  3   force =    -0.00027852    0.00781693   -0.00166554
     The SCF correction term to forces
     atom    1 type  1   force =    -0.00007311    0.00002353    0.00005701
     atom    2 type  2   force =     0.00006092   -0.00023034   -0.00002976
     atom    3 type  3   force =    -0.00000018   -0.00032555    0.00005285
     atom    4 type  3   force =    -0.00031386   -0.00054344    0.00003420
[...]
     Davidson diagonalization with overlap
     ethr =  3.76E-10,  avg # of iterations = 13.3

     negative rho (up, down):  8.966E-04 0.000E+00

     total cpu time spent up to now is     1101.9 secs

     total energy              =   -2477.93683169 Ry
     estimated scf accuracy    <       0.00004129 Ry

     iteration # 48     ecut=    40.42 Ry     beta= 0.70
     Davidson diagonalization with overlap
     ethr =  3.76E-10,  avg # of iterations =  8.3

     negative rho (up, down):  7.292E-04 0.000E+00

     total cpu time spent up to now is     1108.9 secs

     total energy              =   -2477.93674001 Ry
     estimated scf accuracy    <       0.00003355 Ry

     iteration # 49     ecut=    40.42 Ry     beta= 0.70
     Davidson diagonalization with overlap
     ethr =  3.76E-10,  avg # of iterations =  8.1

     total cpu time spent up to now is     1116.7 secs

     total energy              =   -2477.93579613 Ry
     estimated scf accuracy    <       0.00002819 Ry

     iteration # 50     ecut=    40.42 Ry     beta= 0.70
     Davidson diagonalization with overlap
     ethr =  3.76E-10,  avg # of iterations = 10.6

     total cpu time spent up to now is     1126.8 secs

     total energy              =   -2477.93602132 Ry
     estimated scf accuracy    <       0.00001544 Ry

     iteration # 51     ecut=    40.42 Ry     beta= 0.70
     Davidson diagonalization with overlap
     ethr =  3.76E-10,  avg # of iterations =  9.3

     total cpu time spent up to now is     1135.8 secs

     total energy              =   -2477.92998093 Ry
     estimated scf accuracy    <       0.00001147 Ry

     iteration # 52     ecut=    40.42 Ry     beta= 0.70
     Davidson diagonalization with overlap
     ethr =  3.76E-10,  avg # of iterations = 12.6

     total cpu time spent up to now is     1148.4 secs

     total energy              =   -2477.93600354 Ry
     estimated scf accuracy    <       0.00000254 Ry

     iteration # 53     ecut=    40.42 Ry     beta= 0.70
     Davidson diagonalization with overlap
     ethr =  3.76E-10,  avg # of iterations =  6.9

     total cpu time spent up to now is     1155.5 secs

     total energy              =   -2477.93563672 Ry
     estimated scf accuracy    <       0.00000118 Ry

     iteration # 54     ecut=    40.42 Ry     beta= 0.70
     Davidson diagonalization with overlap
     ethr =  3.76E-10,  avg # of iterations =  8.1

     total cpu time spent up to now is     1163.8 secs

     total energy              =   -2477.93597082 Ry
     estimated scf accuracy    <       0.00000184 Ry

     iteration # 55     ecut=    40.42 Ry     beta= 0.70
     Davidson diagonalization with overlap
     ethr =  3.76E-10,  avg # of iterations =  5.0

     total cpu time spent up to now is     1169.4 secs

     total energy              =   -2477.93593978 Ry
     estimated scf accuracy    <       0.00000164 Ry

     iteration # 56     ecut=    40.42 Ry     beta= 0.70
     Davidson diagonalization with overlap
     ethr =  3.76E-10,  avg # of iterations =  7.1

     total cpu time spent up to now is     1176.1 secs

     total energy              =   -2477.93589400 Ry
     estimated scf accuracy    <       0.00000202 Ry

     iteration # 57     ecut=    40.42 Ry     beta= 0.70
     Davidson diagonalization with overlap
     ethr =  3.76E-10,  avg # of iterations =  7.2

     total cpu time spent up to now is     1183.9 secs

     total energy              =   -2477.93514284 Ry
     estimated scf accuracy    <       0.00000409 Ry

     iteration # 58     ecut=    40.42 Ry     beta= 0.70
     Davidson diagonalization with overlap
     ethr =  3.76E-10,  avg # of iterations = 10.0

     total cpu time spent up to now is     1193.8 secs

     total energy              =   -2477.93572813 Ry
     estimated scf accuracy    <       0.00001311 Ry

     iteration # 59     ecut=    40.42 Ry     beta= 0.70
     Davidson diagonalization with overlap
     ethr =  3.76E-10,  avg # of iterations =  9.1

     total cpu time spent up to now is     1204.4 secs

     total energy              =   -2477.93602214 Ry
     estimated scf accuracy    <       0.00000204 Ry

     iteration # 60     ecut=    40.42 Ry     beta= 0.70
     Davidson diagonalization with overlap
     ethr =  3.76E-10,  avg # of iterations =  6.9

     total cpu time spent up to now is     1211.4 secs

     total energy              =   -2477.93578573 Ry
     estimated scf accuracy    <       0.00000129 Ry

     iteration # 61     ecut=    40.42 Ry     beta= 0.70
     Davidson diagonalization with overlap
     ethr =  3.76E-10,  avg # of iterations =  8.1

     total cpu time spent up to now is     1219.6 secs

     total energy              =   -2477.93576187 Ry
     estimated scf accuracy    <       0.00000104 Ry

     iteration # 62     ecut=    40.42 Ry     beta= 0.70
     Davidson diagonalization with overlap
     ethr =  3.76E-10,  avg # of iterations =  8.0

     total cpu time spent up to now is     1227.8 secs

     total energy              =   -2477.93488856 Ry
     estimated scf accuracy    <       0.00000223 Ry

     iteration # 63     ecut=    40.42 Ry     beta= 0.70
     Davidson diagonalization with overlap
     ethr =  3.76E-10,  avg # of iterations = 10.1

     total cpu time spent up to now is     1237.5 secs

     total energy              =   -2477.93604251 Ry
     estimated scf accuracy    <       0.00000109 Ry

     iteration # 64     ecut=    40.42 Ry     beta= 0.70
     Davidson diagonalization with overlap
     ethr =  3.76E-10,  avg # of iterations =  8.0

     total cpu time spent up to now is     1244.2 secs

     total energy              =   -2477.93606919 Ry
     estimated scf accuracy    <       0.00000086 Ry

     iteration # 65     ecut=    40.42 Ry     beta= 0.70
     Davidson diagonalization with overlap
     ethr =  3.76E-10,  avg # of iterations =  7.0

     total cpu time spent up to now is     1250.2 secs

     total energy              =   -2477.93568738 Ry
     estimated scf accuracy    <       0.00000084 Ry

     iteration # 66     ecut=    40.42 Ry     beta= 0.70
     Davidson diagonalization with overlap
     ethr =  3.76E-10,  avg # of iterations =  8.2

     total cpu time spent up to now is     1258.3 secs

     total energy              =   -2477.93602469 Ry
     estimated scf accuracy    <       0.00000155 Ry

     iteration # 67     ecut=    40.42 Ry     beta= 0.70
     Davidson diagonalization with overlap
     ethr =  3.76E-10,  avg # of iterations =  5.0

     total cpu time spent up to now is     1263.9 secs

     total energy              =   -2477.93595416 Ry
     estimated scf accuracy    <       0.00000166 Ry

     iteration # 68     ecut=    40.42 Ry     beta= 0.70
     Davidson diagonalization with overlap
     ethr =  3.76E-10,  avg # of iterations =  8.0

     total cpu time spent up to now is     1270.7 secs

     total energy              =   -2477.93600648 Ry
     estimated scf accuracy    <       0.00000215 Ry

     iteration # 69     ecut=    40.42 Ry     beta= 0.70
     Davidson diagonalization with overlap
     ethr =  3.76E-10,  avg # of iterations =  5.0

     total cpu time spent up to now is     1275.6 secs

     total energy              =   -2477.93598395 Ry
     estimated scf accuracy    <       0.00000194 Ry

     iteration # 70     ecut=    40.42 Ry     beta= 0.70
     Davidson diagonalization with overlap
     ethr =  3.76E-10,  avg # of iterations =  7.1

     total cpu time spent up to now is     1282.1 secs

     total energy              =   -2477.93593441 Ry
     estimated scf accuracy    <       0.00000133 Ry

     iteration # 71     ecut=    40.42 Ry     beta= 0.70
     Davidson diagonalization with overlap
     ethr =  3.76E-10,  avg # of iterations =  7.9

     total cpu time spent up to now is     1289.4 secs

     total energy              =   -2477.93596760 Ry
     estimated scf accuracy    <       0.00000104 Ry

     iteration # 72     ecut=    40.42 Ry     beta= 0.70
     Davidson diagonalization with overlap
     ethr =  3.76E-10,  avg # of iterations =  8.5

     total cpu time spent up to now is     1296.5 secs

     total energy              =   -2477.93590876 Ry
     estimated scf accuracy    <       0.00000097 Ry

     iteration # 73     ecut=    40.42 Ry     beta= 0.70
     Davidson diagonalization with overlap
     ethr =  3.76E-10,  avg # of iterations =  8.4

     total cpu time spent up to now is     1304.4 secs

     total energy              =   -2477.93593126 Ry
     estimated scf accuracy    <       0.00000112 Ry

     iteration # 74     ecut=    40.42 Ry     beta= 0.70
     Davidson diagonalization with overlap
     ethr =  3.76E-10,  avg # of iterations =  8.8

     total cpu time spent up to now is     1312.1 secs

     total energy              =   -2477.93613921 Ry
     estimated scf accuracy    <       0.00000128 Ry

     iteration # 75     ecut=    40.42 Ry     beta= 0.70
     Davidson diagonalization with overlap
     ethr =  3.76E-10,  avg # of iterations =  6.9

     total cpu time spent up to now is     1319.3 secs

     total energy              =   -2477.93603169 Ry
     estimated scf accuracy    <       0.00000218 Ry

     iteration # 76     ecut=    40.42 Ry     beta= 0.70
     Davidson diagonalization with overlap
     ethr =  3.76E-10,  avg # of iterations =  8.0

     total cpu time spent up to now is     1326.6 secs

     total energy              =   -2477.93598252 Ry
     estimated scf accuracy    <       0.00000122 Ry

     iteration # 77     ecut=    40.42 Ry     beta= 0.70
     Davidson diagonalization with overlap
     ethr =  3.76E-10,  avg # of iterations =  8.2

     total cpu time spent up to now is     1334.1 secs

     total energy              =   -2477.93564706 Ry
     estimated scf accuracy    <       0.00000088 Ry

     iteration # 78     ecut=    40.42 Ry     beta= 0.70
     Davidson diagonalization with overlap
     ethr =  3.76E-10,  avg # of iterations =  8.7

     total cpu time spent up to now is     1342.1 secs

     total energy              =   -2477.93603365 Ry
     estimated scf accuracy    <       0.00000109 Ry

     iteration # 79     ecut=    40.42 Ry     beta= 0.70
     Davidson diagonalization with overlap
     ethr =  3.76E-10,  avg # of iterations =  5.5

     total cpu time spent up to now is     1347.6 secs

     total energy              =   -2477.93597342 Ry
     estimated scf accuracy    <       0.00000134 Ry

     iteration # 80     ecut=    40.42 Ry     beta= 0.70
     Davidson diagonalization with overlap
     ethr =  3.76E-10,  avg # of iterations =  8.0

     total cpu time spent up to now is     1354.3 secs

     total energy              =   -2477.93599551 Ry
     estimated scf accuracy    <       0.00000157 Ry

     iteration # 81     ecut=    40.42 Ry     beta= 0.70
     Davidson diagonalization with overlap
     ethr =  3.76E-10,  avg # of iterations =  5.4

     total cpu time spent up to now is     1360.0 secs

     total energy              =   -2477.93566859 Ry
     estimated scf accuracy    <       0.00000161 Ry

     iteration # 82     ecut=    40.42 Ry     beta= 0.70
     Davidson diagonalization with overlap
     ethr =  3.76E-10,  avg # of iterations =  8.0

     total cpu time spent up to now is     1368.3 secs

     total energy              =   -2477.93598272 Ry
     estimated scf accuracy    <       0.00000139 Ry

     iteration # 83     ecut=    40.42 Ry     beta= 0.70
     Davidson diagonalization with overlap
     ethr =  3.76E-10,  avg # of iterations =  7.0

     total cpu time spent up to now is     1375.4 secs

     total energy              =   -2477.93602718 Ry
     estimated scf accuracy    <       0.00000097 Ry

     iteration # 84     ecut=    40.42 Ry     beta= 0.70
     Davidson diagonalization with overlap
     ethr =  3.76E-10,  avg # of iterations =  5.8

     total cpu time spent up to now is     1381.1 secs

     total energy              =   -2477.93603899 Ry
     estimated scf accuracy    <       0.00000093 Ry

     iteration # 85     ecut=    40.42 Ry     beta= 0.70
     Davidson diagonalization with overlap
     ethr =  3.76E-10,  avg # of iterations =  5.6

     total cpu time spent up to now is     1386.8 secs

     total energy              =   -2477.93581717 Ry
     estimated scf accuracy    <       0.00000101 Ry

     iteration # 86     ecut=    40.42 Ry     beta= 0.70
     Davidson diagonalization with overlap
     ethr =  3.76E-10,  avg # of iterations =  9.2

     total cpu time spent up to now is     1394.8 secs

     total energy              =   -2477.93598354 Ry
     estimated scf accuracy    <       0.00000113 Ry

     iteration # 87     ecut=    40.42 Ry     beta= 0.70
     Davidson diagonalization with overlap
     ethr =  3.76E-10,  avg # of iterations =  8.3

     total cpu time spent up to now is     1402.5 secs

     total energy              =   -2477.93605668 Ry
     estimated scf accuracy    <       0.00000113 Ry

     iteration # 88     ecut=    40.42 Ry     beta= 0.70
     Davidson diagonalization with overlap
     ethr =  3.76E-10,  avg # of iterations =  7.2

     total cpu time spent up to now is     1410.0 secs

     total energy              =   -2477.93271354 Ry
     estimated scf accuracy    <       0.00000175 Ry

     iteration # 89     ecut=    40.42 Ry     beta= 0.70
     Davidson diagonalization with overlap
     ethr =  3.76E-10,  avg # of iterations = 12.7

     total cpu time spent up to now is     1422.1 secs

     total energy              =   -2477.92936458 Ry
     estimated scf accuracy    <       0.00000806 Ry

     iteration # 90     ecut=    40.42 Ry     beta= 0.70
     Davidson diagonalization with overlap
     ethr =  3.76E-10,  avg # of iterations = 12.8

     total cpu time spent up to now is     1434.9 secs

     total energy              =   -2477.93565977 Ry
     estimated scf accuracy    <       0.00000116 Ry

     iteration # 91     ecut=    40.42 Ry     beta= 0.70
     Davidson diagonalization with overlap
     ethr =  3.76E-10,  avg # of iterations =  8.9

     total cpu time spent up to now is     1443.4 secs

     total energy              =   -2477.93609485 Ry
     estimated scf accuracy    <       0.00000169 Ry

     iteration # 92     ecut=    40.42 Ry     beta= 0.70
     Davidson diagonalization with overlap
     ethr =  3.76E-10,  avg # of iterations =  7.9

     total cpu time spent up to now is     1450.4 secs

     total energy              =   -2477.93606461 Ry
     estimated scf accuracy    <       0.00000141 Ry

     iteration # 93     ecut=    40.42 Ry     beta= 0.70
     Davidson diagonalization with overlap
     ethr =  3.76E-10,  avg # of iterations =  8.2

     total cpu time spent up to now is     1457.1 secs

     total energy              =   -2477.93567043 Ry
     estimated scf accuracy    <       0.00000130 Ry

     iteration # 94     ecut=    40.42 Ry     beta= 0.70
     Davidson diagonalization with overlap
     ethr =  3.76E-10,  avg # of iterations =  8.2

     total cpu time spent up to now is     1465.4 secs

     total energy              =   -2477.93606871 Ry
     estimated scf accuracy    <       0.00000162 Ry

     iteration # 95     ecut=    40.42 Ry     beta= 0.70
     Davidson diagonalization with overlap
     ethr =  3.76E-10,  avg # of iterations =  5.1

     total cpu time spent up to now is     1469.9 secs

     total energy              =   -2477.93603948 Ry
     estimated scf accuracy    <       0.00000170 Ry

     iteration # 96     ecut=    40.42 Ry     beta= 0.70
     Davidson diagonalization with overlap
     ethr =  3.76E-10,  avg # of iterations =  5.9

     total cpu time spent up to now is     1475.7 secs

     total energy              =   -2477.93600771 Ry
     estimated scf accuracy    <       0.00000233 Ry

     iteration # 97     ecut=    40.42 Ry     beta= 0.70
     Davidson diagonalization with overlap
     ethr =  3.76E-10,  avg # of iterations =  7.1

     total cpu time spent up to now is     1481.9 secs

     total energy              =   -2477.93571450 Ry
     estimated scf accuracy    <       0.00000280 Ry

     iteration # 98     ecut=    40.42 Ry     beta= 0.70
     Davidson diagonalization with overlap
     ethr =  3.76E-10,  avg # of iterations =  9.3

     total cpu time spent up to now is     1489.9 secs

     total energy              =   -2477.93473141 Ry
     estimated scf accuracy    <       0.00000147 Ry

     iteration # 99     ecut=    40.42 Ry     beta= 0.70
     Davidson diagonalization with overlap
     ethr =  3.76E-10,  avg # of iterations = 11.2

     total cpu time spent up to now is     1499.9 secs

     total energy              =   -2477.93572486 Ry
     estimated scf accuracy    <       0.00000273 Ry

     iteration #100     ecut=    40.42 Ry     beta= 0.70
     Davidson diagonalization with overlap
     ethr =  3.76E-10,  avg # of iterations =  8.5

     total cpu time spent up to now is     1508.1 secs

     total energy              =   -2477.93615307 Ry
     estimated scf accuracy    <       0.00000136 Ry

     End of self-consistent calculation

     convergence NOT achieved after 100 iterations: stopping

     Writing config to output data dir ./tutorial_hubbard.save/
 
     init_run     :      2.78s CPU      2.86s WALL (       1 calls)
     electrons    :   1414.14s CPU   1442.41s WALL (       4 calls)
     update_pot   :      1.11s CPU      1.12s WALL (       3 calls)
     forces       :     58.33s CPU     58.62s WALL (       3 calls)

     Called by init_run:
     wfcinit      :      2.17s CPU      2.21s WALL (       1 calls)
     potinit      :      0.35s CPU      0.36s WALL (       1 calls)
     hinit0       :      0.22s CPU      0.23s WALL (       1 calls)

     Called by electrons:
     c_bands      :   1297.63s CPU   1322.67s WALL (     204 calls)
     sum_band     :     84.84s CPU     87.11s WALL (     204 calls)
     v_of_rho     :      1.35s CPU      1.36s WALL (     208 calls)
     newd         :      3.55s CPU      3.57s WALL (     208 calls)
     PAW_pot      :     27.00s CPU     27.69s WALL (     211 calls)
     mix_rho      :      0.54s CPU      0.55s WALL (     204 calls)

     Called by c_bands:
     init_us_2    :      7.63s CPU      7.73s WALL (    6330 calls)
     init_us_2:cp :      7.60s CPU      7.71s WALL (    6330 calls)
     cegterg      :   1234.52s CPU   1257.54s WALL (    3061 calls)

     Called by *egterg:
     cdiaghg      :    405.91s CPU    409.33s WALL (   25432 calls)
     h_psi        :    514.02s CPU    525.45s WALL (   25492 calls)
     s_psi        :     60.12s CPU     60.54s WALL (   25642 calls)
     g_psi        :      3.79s CPU      3.82s WALL (   22416 calls)

     Called by h_psi:
     h_psi:calbec :     59.27s CPU     59.85s WALL (   25492 calls)
     vloc_psi     :    365.99s CPU    376.22s WALL (   25492 calls)
     add_vuspsi   :     58.36s CPU     58.59s WALL (   25492 calls)
     vhpsi        :     26.66s CPU     27.02s WALL (   25492 calls)

     General routines
     calbec       :    100.12s CPU    101.24s WALL (   83444 calls)
     fft          :      0.65s CPU      0.66s WALL (    2325 calls)
     ffts         :      0.06s CPU      0.06s WALL (     204 calls)
     fftw         :    364.37s CPU    374.23s WALL ( 2946388 calls)
     davcio       :      0.00s CPU      0.02s WALL (      48 calls)
 
     Parallel routines

     Hubbard U routines
     new_ns       :      4.57s CPU      4.68s WALL (     204 calls)
     vhpsi        :     26.66s CPU     27.02s WALL (   25492 calls)
     force_hub    :     56.25s CPU     56.51s WALL (       3 calls)
                                        0.00s GPU  (       3 calls)
 
     PWSCF        :  24m39.43s CPU  25m 8.52s WALL

 
   This run was terminated on:  17: 6:24  29May2023            

=------------------------------------------------------------------------------=
   JOB DONE.
=------------------------------------------------------------------------------=
